 Entering Gaussian System, Link 0=g09
 Input=MeNO2_opt.com
 Output=MeNO2_opt.log
 Initial command:
 /apps/applications/gaussian/G09.D01/2/default/g09/l1.exe "/nobackup/chmbnn/Gau-6240.inp" -scrdir="/nobackup/chmbnn/"
 Entering Link 1 = /apps/applications/gaussian/G09.D01/2/default/g09/l1.exe PID=      6241.
  
 Copyright (c) 1988,1990,1992,1993,1995,1998,2003,2009,2013,
            Gaussian, Inc.  All Rights Reserved.
  
 This is part of the Gaussian(R) 09 program.  It is based on
 the Gaussian(R) 03 system (copyright 2003, Gaussian, Inc.),
 the Gaussian(R) 98 system (copyright 1998, Gaussian, Inc.),
 the Gaussian(R) 94 system (copyright 1995, Gaussian, Inc.),
 the Gaussian 92(TM) system (copyright 1992, Gaussian, Inc.),
 the Gaussian 90(TM) system (copyright 1990, Gaussian, Inc.),
 the Gaussian 88(TM) system (copyright 1988, Gaussian, Inc.),
 the Gaussian 86(TM) system (copyright 1986, Carnegie Mellon
 University), and the Gaussian 82(TM) system (copyright 1983,
 Carnegie Mellon University). Gaussian is a federally registered
 trademark of Gaussian, Inc.
  
 This software contains proprietary and confidential information,
 including trade secrets, belonging to Gaussian, Inc.
  
 This software is provided under written license and may be
 used, copied, transmitted, or stored only in accord with that
 written license.
  
 The following legend is applicable only to US Government
 contracts under FAR:
  
                    RESTRICTED RIGHTS LEGEND
  
 Use, reproduction and disclosure by the US Government is
 subject to restrictions as set forth in subparagraphs (a)
 and (c) of the Commercial Computer Software - Restricted
 Rights clause in FAR 52.227-19.
  
 Gaussian, Inc.
 340 Quinnipiac St., Bldg. 40, Wallingford CT 06492
  
  
 ---------------------------------------------------------------
 Warning -- This program may not be used in any manner that
 competes with the business of Gaussian, Inc. or will provide
 assistance to any competitor of Gaussian, Inc.  The licensee
 of this program is prohibited from giving any competitor of
 Gaussian, Inc. access to this program.  By using this program,
 the user acknowledges that Gaussian, Inc. is engaged in the
 business of creating and licensing software in the field of
 computational chemistry and represents and warrants to the
 licensee that it is not a competitor of Gaussian, Inc. and that
 it will not use this program in any manner prohibited above.
 ---------------------------------------------------------------
  

 Cite this work as:
 Gaussian 09, Revision D.01,
 M. J. Frisch, G. W. Trucks, H. B. Schlegel, G. E. Scuseria, 
 M. A. Robb, J. R. Cheeseman, G. Scalmani, V. Barone, B. Mennucci, 
 G. A. Petersson, H. Nakatsuji, M. Caricato, X. Li, H. P. Hratchian, 
 A. F. Izmaylov, J. Bloino, G. Zheng, J. L. Sonnenberg, M. Hada, 
 M. Ehara, K. Toyota, R. Fukuda, J. Hasegawa, M. Ishida, T. Nakajima, 
 Y. Honda, O. Kitao, H. Nakai, T. Vreven, J. A. Montgomery, Jr., 
 J. E. Peralta, F. Ogliaro, M. Bearpark, J. J. Heyd, E. Brothers, 
 K. N. Kudin, V. N. Staroverov, T. Keith, R. Kobayashi, J. Normand, 
 K. Raghavachari, A. Rendell, J. C. Burant, S. S. Iyengar, J. Tomasi, 
 M. Cossi, N. Rega, J. M. Millam, M. Klene, J. E. Knox, J. B. Cross, 
 V. Bakken, C. Adamo, J. Jaramillo, R. Gomperts, R. E. Stratmann, 
 O. Yazyev, A. J. Austin, R. Cammi, C. Pomelli, J. W. Ochterski, 
 R. L. Martin, K. Morokuma, V. G. Zakrzewski, G. A. Voth, 
 P. Salvador, J. J. Dannenberg, S. Dapprich, A. D. Daniels, 
 O. Farkas, J. B. Foresman, J. V. Ortiz, J. Cioslowski, 
 and D. J. Fox, Gaussian, Inc., Wallingford CT, 2013.
 
 ******************************************
 Gaussian 09:  ES64L-G09RevD.01 24-Apr-2013
                28-Jul-2021 
 ******************************************
 %nprocshared=4
 Will use up to    4 processors via shared memory.
 %chk=MeNO2_opt.chk
 ----------------------------------------------------------------------
 # opt freq scrf=(cpcm,solvent=nitromethane) def2svp m062x temperature=
 363.15
 ----------------------------------------------------------------------
 1/14=-1,18=20,19=15,26=3,38=1,112=363150/1,3;
 2/9=110,12=2,17=6,18=5,40=1/2;
 3/5=43,7=101,11=2,16=1,25=1,30=1,70=2101,71=1,72=15,74=-55/1,2,3;
 4//1;
 5/5=2,38=5,53=15/2;
 6/7=2,8=2,9=2,10=2,28=1/1;
 7//1,2,3,16;
 1/14=-1,18=20,19=15,26=3/3(2);
 2/9=110/2;
 99//99;
 2/9=110/2;
 3/5=43,7=101,11=2,16=1,25=1,30=1,70=2105,71=1,72=15,74=-55/1,2,3;
 4/5=5,16=3,69=1/1;
 5/5=2,38=5,53=15/2;
 7//1,2,3,16;
 1/14=-1,18=20,19=15,26=3/3(-5);
 2/9=110/2;
 6/7=2,8=2,9=2,10=2,19=2,28=1/1;
 99/9=1/99;
 ---------
 MeNO2 opt
 ---------
 Symbolic Z-matrix:
 Charge =  0 Multiplicity = 1
 N                     0.16906   0.00001  -0.01144 
 O                     0.72901   1.06971   0.00298 
 O                     0.72847  -1.06999   0.00298 
 C                    -1.31794   0.00026  -0.00258 
 H                    -1.62141  -0.00201   1.05136 
 H                    -1.65705   0.91186  -0.49989 
 H                    -1.65722  -0.90922  -0.50368 
 

 GradGradGradGradGradGradGradGradGradGradGradGradGradGradGradGradGradGrad
 Berny optimization.
 Initialization pass.
                           ----------------------------
                           !    Initial Parameters    !
                           ! (Angstroms and Degrees)  !
 --------------------------                            --------------------------
 ! Name  Definition              Value          Derivative Info.                !
 --------------------------------------------------------------------------------
 ! R1    R(1,2)                  1.2075         estimate D2E/DX2                !
 ! R2    R(1,3)                  1.2075         estimate D2E/DX2                !
 ! R3    R(1,4)                  1.487          estimate D2E/DX2                !
 ! R4    R(4,5)                  1.0968         estimate D2E/DX2                !
 ! R5    R(4,6)                  1.0924         estimate D2E/DX2                !
 ! R6    R(4,7)                  1.0924         estimate D2E/DX2                !
 ! A1    A(2,1,3)              124.753          estimate D2E/DX2                !
 ! A2    A(2,1,4)              117.6132         estimate D2E/DX2                !
 ! A3    A(3,1,4)              117.6036         estimate D2E/DX2                !
 ! A4    A(1,4,5)              106.4043         estimate D2E/DX2                !
 ! A5    A(1,4,6)              107.9297         estimate D2E/DX2                !
 ! A6    A(1,4,7)              107.9204         estimate D2E/DX2                !
 ! A7    A(5,4,6)              110.69           estimate D2E/DX2                !
 ! A8    A(5,4,7)              110.68           estimate D2E/DX2                !
 ! A9    A(6,4,7)              112.924          estimate D2E/DX2                !
 ! D1    D(2,1,4,5)            -89.1752         estimate D2E/DX2                !
 ! D2    D(2,1,4,6)             29.6644         estimate D2E/DX2                !
 ! D3    D(2,1,4,7)            152.0016         estimate D2E/DX2                !
 ! D4    D(3,1,4,5)             88.9228         estimate D2E/DX2                !
 ! D5    D(3,1,4,6)           -152.2375         estimate D2E/DX2                !
 ! D6    D(3,1,4,7)            -29.9004         estimate D2E/DX2                !
 --------------------------------------------------------------------------------
 Trust Radius=3.00D-01 FncErr=1.00D-07 GrdErr=1.00D-06
 Number of steps in this run=     31 maximum allowed number of steps=    100.
 GradGradGradGradGradGradGradGradGradGradGradGradGradGradGradGradGradGrad

                          Input orientation:                          
 ---------------------------------------------------------------------
 Center     Atomic      Atomic             Coordinates (Angstroms)
 Number     Number       Type             X           Y           Z
 ---------------------------------------------------------------------
      1          7           0        0.169063    0.000006   -0.011439
      2          8           0        0.729014    1.069715    0.002984
      3          8           0        0.728471   -1.069994    0.002984
      4          6           0       -1.317942    0.000260   -0.002576
      5          1           0       -1.621406   -0.002007    1.051362
      6          1           0       -1.657051    0.911861   -0.499894
      7          1           0       -1.657220   -0.909219   -0.503680
 ---------------------------------------------------------------------
                    Distance matrix (angstroms):
                    1          2          3          4          5
     1  N    0.000000
     2  O    1.207489   0.000000
     3  O    1.207495   2.139709   0.000000
     4  C    1.487031   2.309501   2.309390   0.000000
     5  H    2.082145   2.787859   2.785967   1.096759   0.000000
     6  H    2.098752   2.443586   3.141871   1.092399   1.800783
     7  H    2.098643   3.141178   2.444193   1.092413   1.800687
                    6          7
     6  H    0.000000
     7  H    1.821084   0.000000
 Stoichiometry    CH3NO2
 Framework group  C1[X(CH3NO2)]
 Deg. of freedom    15
 Full point group                 C1      NOp   1
 Largest Abelian subgroup         C1      NOp   1
 Largest concise Abelian subgroup C1      NOp   1
                         Standard orientation:                         
 ---------------------------------------------------------------------
 Center     Atomic      Atomic             Coordinates (Angstroms)
 Number     Number       Type             X           Y           Z
 ---------------------------------------------------------------------
      1          7           0       -0.169063   -0.000006   -0.011439
      2          8           0       -0.729015   -1.069715    0.002984
      3          8           0       -0.728471    1.069994    0.002984
      4          6           0        1.317942   -0.000260   -0.002576
      5          1           0        1.621406    0.002007    1.051362
      6          1           0        1.657051   -0.911861   -0.499894
      7          1           0        1.657220    0.909219   -0.503680
 ---------------------------------------------------------------------
 Rotational constants (GHZ):     12.6629669     10.6062708      5.9941692
 Standard basis: def2SVP (5D, 7F)
 There are    75 symmetry adapted cartesian basis functions of A   symmetry.
 There are    71 symmetry adapted basis functions of A   symmetry.
    71 basis functions,   121 primitive gaussians,    75 cartesian basis functions
    16 alpha electrons       16 beta electrons
       nuclear repulsion energy       125.9476944759 Hartrees.
 NAtoms=    7 NActive=    7 NUniq=    7 SFac= 1.00D+00 NAtFMM=   60 NAOKFM=F Big=F
 Integral buffers will be    131072 words long.
 Raffenetti 2 integral format.
 Two-electron integral symmetry is turned on.
 ------------------------------------------------------------------------------
 Polarizable Continuum Model (PCM)
 =================================
 Model                : C-PCM.
 Atomic radii         : UFF (Universal Force Field).
 Polarization charges : Total charges.
 Charge compensation  : None.
 Solution method      : On-the-fly selection.
 Cavity type          : Scaled VdW (van der Waals Surface) (Alpha=1.100).
 Cavity algorithm     : GePol (No added spheres)
                        Default sphere list used, NSphG=    7.
                        Lebedev-Laikov grids with approx.  5.0 points / Ang**2.
                        Smoothing algorithm: Karplus/York (Gamma=1.0000).
                        Polarization charges: spherical gaussians, with
                                              point-specific exponents (IZeta= 3).
                        Self-potential: point-specific (ISelfS= 7).
                        Self-field    : sphere-specific E.n sum rule (ISelfD= 2).
 1st derivatives      : Analytical E(r).r(x)/FMM algorithm (CHGder, D1EAlg=3).
                        Cavity 1st derivative terms included.
 Solvent              : NitroMethane, Eps=  36.562000 Eps(inf)=   1.909095
 ------------------------------------------------------------------------------
 Spheres list:
 ISph  on   Nord     Re0    Alpha      Xe            Ye            Ze
    1   N      1    1.8300  1.100     -0.169063     -0.000006     -0.011439
    2   O      2    1.7500  1.100     -0.729015     -1.069715      0.002984
    3   O      3    1.7500  1.100     -0.728471      1.069994      0.002984
    4   C      4    1.9255  1.100      1.317942     -0.000260     -0.002576
    5   H      5    1.4430  1.100      1.621406      0.002007      1.051362
    6   H      6    1.4430  1.100      1.657051     -0.911861     -0.499894
    7   H      7    1.4430  1.100      1.657220      0.909219     -0.503680
 ------------------------------------------------------------------------------
 One-electron integrals computed using PRISM.
   1 Symmetry operations used in ECPInt.
 ECPInt:  NShTT=     561 NPrTT=    2077 LenC2=     562 LenP2D=    1814.
 LDataN:  DoStor=T MaxTD1= 4 Len=   56
 NBasis=    71 RedAO= T EigKep=  6.70D-03  NBF=    71
 NBsUse=    71 1.00D-06 EigRej= -1.00D+00 NBFU=    71
 ExpMin= 1.22D-01 ExpMax= 2.27D+03 ExpMxC= 3.41D+02 IAcc=1 IRadAn=         1 AccDes= 0.00D+00
 Harris functional with IExCor= 1009 and IRadAn=       1 diagonalized for initial guess.
 HarFok:  IExCor= 1009 AccDes= 0.00D+00 IRadAn=         1 IDoV= 1 UseB2=F ITyADJ=14
 ICtDFT=  3500011 ScaDFX=  1.000000  1.000000  1.000000  1.000000
 FoFCou: FMM=F IPFlag=           0 FMFlag=      100000 FMFlg1=           0
         NFxFlg=           0 DoJE=T BraDBF=F KetDBF=T FulRan=T
         wScrn=  0.000000 ICntrl=     500 IOpCl=  0 I1Cent=   200000004 NGrid=           0
         NMat0=    1 NMatS0=      1 NMatT0=    0 NMatD0=    1 NMtDS0=    0 NMtDT0=    0
 Petite list used in FoFCou.
 Keep R1 ints in memory in canonical form, NReq=6927169.
 Requested convergence on RMS density matrix=1.00D-08 within 128 cycles.
 Requested convergence on MAX density matrix=1.00D-06.
 Requested convergence on             energy=1.00D-06.
 No special actions if energy rises.
 Inv3:  Mode=1 IEnd=     1858107.
 Iteration    1 A*A^-1 deviation from unit magnitude is 3.77D-15 for    757.
 Iteration    1 A*A^-1 deviation from orthogonality  is 2.63D-15 for    759     74.
 Iteration    1 A^-1*A deviation from unit magnitude is 3.77D-15 for    757.
 Iteration    1 A^-1*A deviation from orthogonality  is 1.29D-15 for    643    503.
 Error on total polarization charges =  0.00280
 SCF Done:  E(RM062X) =  -244.721796072     A.U. after   13 cycles
            NFock= 13  Conv=0.19D-08     -V/T= 2.0070

 **********************************************************************

            Population analysis using the SCF density.

 **********************************************************************

 Orbital symmetries:
       Occupied  (A) (A) (A) (A) (A) (A) (A) (A) (A) (A) (A) (A)
                 (A) (A) (A) (A)
       Virtual   (A) (A) (A) (A) (A) (A) (A) (A) (A) (A) (A) (A)
                 (A) (A) (A) (A) (A) (A) (A) (A) (A) (A) (A) (A)
                 (A) (A) (A) (A) (A) (A) (A) (A) (A) (A) (A) (A)
                 (A) (A) (A) (A) (A) (A) (A) (A) (A) (A) (A) (A)
                 (A) (A) (A) (A) (A) (A) (A)
 The electronic state is 1-A.
 Alpha  occ. eigenvalues --  -19.66918 -19.66912 -15.00744 -10.60939  -1.36698
 Alpha  occ. eigenvalues --   -1.17798  -0.90844  -0.69830  -0.64432  -0.62716
 Alpha  occ. eigenvalues --   -0.60940  -0.50963  -0.49001  -0.39204  -0.38497
 Alpha  occ. eigenvalues --   -0.38302
 Alpha virt. eigenvalues --   -0.01547   0.11554   0.16323   0.16699   0.17553
 Alpha virt. eigenvalues --    0.34163   0.42455   0.46772   0.49153   0.51699
 Alpha virt. eigenvalues --    0.62257   0.68262   0.69234   0.69352   0.77496
 Alpha virt. eigenvalues --    0.79767   0.81868   0.96001   0.96534   1.04183
 Alpha virt. eigenvalues --    1.04477   1.07329   1.13008   1.14044   1.27204
 Alpha virt. eigenvalues --    1.34644   1.39552   1.53154   1.64666   1.68765
 Alpha virt. eigenvalues --    1.77427   1.80604   1.82357   1.84835   2.01272
 Alpha virt. eigenvalues --    2.04372   2.19648   2.34444   2.41717   2.46517
 Alpha virt. eigenvalues --    2.48791   2.50583   2.66697   2.69567   2.70038
 Alpha virt. eigenvalues --    2.73066   2.84721   2.86983   2.91077   3.12782
 Alpha virt. eigenvalues --    3.24139   3.36813   3.47310   3.76030   3.79168
          Condensed to atoms (all electrons):
               1          2          3          4          5          6
     1  N    5.911185   0.306736   0.306573   0.317682  -0.011289  -0.016562
     2  O    0.306736   8.164524  -0.114308  -0.073853  -0.000202   0.006288
     3  O    0.306573  -0.114308   8.164742  -0.073848  -0.000198   0.004589
     4  C    0.317682  -0.073853  -0.073848   4.585487   0.398857   0.390727
     5  H   -0.011289  -0.000202  -0.000198   0.398857   0.510173  -0.010549
     6  H   -0.016562   0.006288   0.004589   0.390727  -0.010549   0.544302
     7  H   -0.016540   0.004571   0.006259   0.390747  -0.010543  -0.017443
               7
     1  N   -0.016540
     2  O    0.004571
     3  O    0.006259
     4  C    0.390747
     5  H   -0.010543
     6  H   -0.017443
     7  H    0.544200
 Mulliken charges:
               1
     1  N    0.202215
     2  O   -0.293757
     3  O   -0.293808
     4  C    0.064200
     5  H    0.123751
     6  H    0.098648
     7  H    0.098751
 Sum of Mulliken charges =   0.00000
 Mulliken charges with hydrogens summed into heavy atoms:
               1
     1  N    0.202215
     2  O   -0.293757
     3  O   -0.293808
     4  C    0.385349
 Electronic spatial extent (au):  <R**2>=            225.7296
 Charge=              0.0000 electrons
 Dipole moment (field-independent basis, Debye):
    X=              4.2937    Y=             -0.0007    Z=              0.0604  Tot=              4.2941
 Quadrupole moment (field-independent basis, Debye-Ang):
   XX=            -21.4343   YY=            -26.6065   ZZ=            -21.0724
   XY=             -0.0003   XZ=              0.1661   YZ=              0.0000
 Traceless Quadrupole moment (field-independent basis, Debye-Ang):
   XX=              1.6035   YY=             -3.5688   ZZ=              1.9653
   XY=             -0.0003   XZ=              0.1661   YZ=              0.0000
 Octapole moment (field-independent basis, Debye-Ang**2):
  XXX=              3.6747  YYY=             -0.0070  ZZZ=              1.0787  XYY=              3.3865
  XXY=              0.0017  XXZ=              0.1720  XZZ=             -0.0762  YZZ=              0.0058
  YYZ=             -0.8213  XYZ=             -0.0001
 Hexadecapole moment (field-independent basis, Debye-Ang**3):
 XXXX=           -132.9501 YYYY=           -103.7779 ZZZZ=            -22.1199 XXXY=              0.0016
 XXXZ=              0.3957 YYYX=             -0.0090 YYYZ=              0.0003 ZZZX=              1.8929
 ZZZY=              0.0004 XXYY=            -39.0483 XXZZ=            -24.3436 YYZZ=            -19.9468
 XXYZ=             -0.0005 YYXZ=             -1.5045 ZZXY=              0.0106
 N-N= 1.259476944759D+02 E-N=-8.260017912258D+02  KE= 2.430265899198D+02
   1 Symmetry operations used in ECPInt.
 ECPInt:  NShTT=     561 NPrTT=    2077 LenC2=     562 LenP2D=    1814.
 LDataN:  DoStor=T MaxTD1= 5 Len=  102
 D1PCM: C-PCM CHGder 1st derivatives, ID1Alg=3 FixD1E=F DoIter=F DoCFld=F I1PDM=0.
 Calling FoFJK, ICntrl=      2127 FMM=F ISym2X=0 I1Cent= 0 IOpClX= 0 NMat=1 NMatS=1 NMatT=0.
 ***** Axes restored to original set *****
 -------------------------------------------------------------------
 Center     Atomic                   Forces (Hartrees/Bohr)
 Number     Number              X              Y              Z
 -------------------------------------------------------------------
      1        7           0.000256865    0.000002864   -0.000324273
      2        8          -0.000057737    0.000039137    0.000109204
      3        8          -0.000056932   -0.000040926    0.000109392
      4        6          -0.000853832    0.000000118    0.000275377
      5        1           0.000143619   -0.000001948   -0.000260433
      6        1           0.000283843   -0.000113379    0.000046672
      7        1           0.000284174    0.000114134    0.000044061
 -------------------------------------------------------------------
 Cartesian Forces:  Max     0.000853832 RMS     0.000247795

 GradGradGradGradGradGradGradGradGradGradGradGradGradGradGradGradGradGrad
 Berny optimization.
 FormGI is forming the generalized inverse of G from B-inverse, IUseBI=4.
 Internal  Forces:  Max     0.000280090 RMS     0.000152030
 Search for a local minimum.
 Step number   1 out of a maximum of   31
 All quantities printed in internal units (Hartrees-Bohrs-Radians)
 Mixed Optimization -- En-DIIS/RFO-DIIS
 Second derivative matrix not updated -- first step.
 ITU=  0
     Eigenvalues ---    0.00541   0.00546   0.07672   0.07941   0.16000
     Eigenvalues ---    0.16000   0.16000   0.25000   0.25000   0.33777
     Eigenvalues ---    0.34043   0.34535   0.34537   1.01145   1.01148
 RFO step:  Lambda=-6.16328785D-06 EMin= 5.40521272D-03
 Linear search not attempted -- first point.
 Iteration  1 RMS(Cart)=  0.00360068 RMS(Int)=  0.00003848
 Iteration  2 RMS(Cart)=  0.00002829 RMS(Int)=  0.00002859
 Iteration  3 RMS(Cart)=  0.00000000 RMS(Int)=  0.00002859
 Variable       Old X    -DE/DX   Delta X   Delta X   Delta X     New X
                                 (Linear)    (Quad)   (Total)
    R1        2.28182   0.00001   0.00000   0.00001   0.00001   2.28183
    R2        2.28184   0.00001   0.00000   0.00001   0.00001   2.28185
    R3        2.81008   0.00014   0.00000   0.00042   0.00042   2.81050
    R4        2.07257  -0.00028   0.00000  -0.00082  -0.00082   2.07175
    R5        2.06434  -0.00021   0.00000  -0.00060  -0.00060   2.06373
    R6        2.06436  -0.00021   0.00000  -0.00060  -0.00060   2.06376
    A1        2.17735   0.00011   0.00000   0.00020   0.00012   2.17747
    A2        2.05274  -0.00005   0.00000  -0.00044  -0.00052   2.05222
    A3        2.05257  -0.00006   0.00000  -0.00045  -0.00052   2.05205
    A4        1.85711  -0.00003   0.00000  -0.00009  -0.00009   1.85701
    A5        1.88373  -0.00028   0.00000  -0.00180  -0.00180   1.88193
    A6        1.88357  -0.00028   0.00000  -0.00180  -0.00180   1.88177
    A7        1.93190   0.00016   0.00000   0.00113   0.00113   1.93303
    A8        1.93173   0.00016   0.00000   0.00112   0.00112   1.93285
    A9        1.97090   0.00023   0.00000   0.00118   0.00118   1.97208
    D1       -1.55640   0.00006   0.00000   0.01072   0.01072  -1.54568
    D2        0.51774   0.00009   0.00000   0.01107   0.01107   0.52881
    D3        2.65293   0.00003   0.00000   0.01039   0.01039   2.66331
    D4        1.55200  -0.00006   0.00000  -0.01103  -0.01103   1.54097
    D5       -2.65705  -0.00003   0.00000  -0.01068  -0.01068  -2.66773
    D6       -0.52186  -0.00009   0.00000  -0.01137  -0.01136  -0.53322
         Item               Value     Threshold  Converged?
 Maximum Force            0.000280     0.000450     YES
 RMS     Force            0.000152     0.000300     YES
 Maximum Displacement     0.011783     0.001800     NO 
 RMS     Displacement     0.003606     0.001200     NO 
 Predicted change in Energy=-3.066565D-06
 GradGradGradGradGradGradGradGradGradGradGradGradGradGradGradGradGradGrad

                          Input orientation:                          
 ---------------------------------------------------------------------
 Center     Atomic      Atomic             Coordinates (Angstroms)
 Number     Number       Type             X           Y           Z
 ---------------------------------------------------------------------
      1          7           0        0.168656    0.000007   -0.017674
      2          8           0        0.728217    1.069756    0.006212
      3          8           0        0.727670   -1.070032    0.006400
      4          6           0       -1.318529    0.000261   -0.003259
      5          1           0       -1.617842   -0.002074    1.051413
      6          1           0       -1.657531    0.911982   -0.499727
      7          1           0       -1.657711   -0.909278   -0.503624
 ---------------------------------------------------------------------
                    Distance matrix (angstroms):
                    1          2          3          4          5
     1  N    0.000000
     2  O    1.207494   0.000000
     3  O    1.207501   2.139787   0.000000
     4  C    1.487255   2.309346   2.309232   0.000000
     5  H    2.081953   2.783030   2.781010   1.096324   0.000000
     6  H    2.097387   2.443902   3.142249   1.092080   1.800863
     7  H    2.097275   3.141522   2.444588   1.092094   1.800763
                    6          7
     6  H    0.000000
     7  H    1.821265   0.000000
 Stoichiometry    CH3NO2
 Framework group  C1[X(CH3NO2)]
 Deg. of freedom    15
 Full point group                 C1      NOp   1
 Largest Abelian subgroup         C1      NOp   1
 Largest concise Abelian subgroup C1      NOp   1
                         Standard orientation:                         
 ---------------------------------------------------------------------
 Center     Atomic      Atomic             Coordinates (Angstroms)
 Number     Number       Type             X           Y           Z
 ---------------------------------------------------------------------
      1          7           0       -0.169145   -0.000006   -0.018120
      2          8           0       -0.728751   -1.069749    0.004976
      3          8           0       -0.728190    1.070038    0.004976
      4          6           0        1.318015   -0.000269   -0.001351
      5          1           0        1.615659    0.002157    1.053793
      6          1           0        1.657796   -0.912037   -0.497201
      7          1           0        1.657995    0.909223   -0.501259
 ---------------------------------------------------------------------
 Rotational constants (GHZ):     12.6610010     10.6106751      5.9955883
 Standard basis: def2SVP (5D, 7F)
 There are    75 symmetry adapted cartesian basis functions of A   symmetry.
 There are    71 symmetry adapted basis functions of A   symmetry.
    71 basis functions,   121 primitive gaussians,    75 cartesian basis functions
    16 alpha electrons       16 beta electrons
       nuclear repulsion energy       125.9559312016 Hartrees.
 NAtoms=    7 NActive=    7 NUniq=    7 SFac= 1.00D+00 NAtFMM=   60 NAOKFM=F Big=F
 Integral buffers will be    131072 words long.
 Raffenetti 2 integral format.
 Two-electron integral symmetry is turned on.
 ------------------------------------------------------------------------------
 Polarizable Continuum Model (PCM)
 =================================
 Model                : C-PCM.
 Atomic radii         : UFF (Universal Force Field).
 Polarization charges : Total charges.
 Charge compensation  : None.
 Solution method      : On-the-fly selection.
 Cavity type          : Scaled VdW (van der Waals Surface) (Alpha=1.100).
 Cavity algorithm     : GePol (No added spheres)
                        Default sphere list used, NSphG=    7.
                        Lebedev-Laikov grids with approx.  5.0 points / Ang**2.
                        Smoothing algorithm: Karplus/York (Gamma=1.0000).
                        Polarization charges: spherical gaussians, with
                                              point-specific exponents (IZeta= 3).
                        Self-potential: point-specific (ISelfS= 7).
                        Self-field    : sphere-specific E.n sum rule (ISelfD= 2).
 1st derivatives      : Analytical E(r).r(x)/FMM algorithm (CHGder, D1EAlg=3).
                        Cavity 1st derivative terms included.
 Solvent              : NitroMethane, Eps=  36.562000 Eps(inf)=   1.909095
 ------------------------------------------------------------------------------
 Spheres list:
 ISph  on   Nord     Re0    Alpha      Xe            Ye            Ze
    1   N      1    1.8300  1.100     -0.169145     -0.000006     -0.018120
    2   O      2    1.7500  1.100     -0.728751     -1.069749      0.004976
    3   O      3    1.7500  1.100     -0.728190      1.070038      0.004976
    4   C      4    1.9255  1.100      1.318015     -0.000269     -0.001351
    5   H      5    1.4430  1.100      1.615659      0.002157      1.053793
    6   H      6    1.4430  1.100      1.657796     -0.912037     -0.497201
    7   H      7    1.4430  1.100      1.657995      0.909223     -0.501259
 ------------------------------------------------------------------------------
 One-electron integrals computed using PRISM.
   1 Symmetry operations used in ECPInt.
 ECPInt:  NShTT=     561 NPrTT=    2077 LenC2=     562 LenP2D=    1814.
 LDataN:  DoStor=T MaxTD1= 4 Len=   56
 NBasis=    71 RedAO= T EigKep=  6.74D-03  NBF=    71
 NBsUse=    71 1.00D-06 EigRej= -1.00D+00 NBFU=    71
 Initial guess from the checkpoint file:  "MeNO2_opt.chk"
 B after Tr=     0.000000    0.000000    0.000000
         Rot=    1.000000    0.000011    0.000235    0.000004 Ang=   0.03 deg.
 Keep R1 ints in memory in canonical form, NReq=6927169.
 Requested convergence on RMS density matrix=1.00D-08 within 128 cycles.
 Requested convergence on MAX density matrix=1.00D-06.
 Requested convergence on             energy=1.00D-06.
 No special actions if energy rises.
 Inv3:  Mode=1 IEnd=     1858107.
 Iteration    1 A*A^-1 deviation from unit magnitude is 4.44D-15 for    765.
 Iteration    1 A*A^-1 deviation from orthogonality  is 1.96D-15 for    759     74.
 Iteration    1 A^-1*A deviation from unit magnitude is 4.44D-15 for    765.
 Iteration    1 A^-1*A deviation from orthogonality  is 1.38D-15 for    752    212.
 Error on total polarization charges =  0.00280
 SCF Done:  E(RM062X) =  -244.721772797     A.U. after   10 cycles
            NFock= 10  Conv=0.65D-08     -V/T= 2.0070
   1 Symmetry operations used in ECPInt.
 ECPInt:  NShTT=     561 NPrTT=    2077 LenC2=     562 LenP2D=    1814.
 LDataN:  DoStor=T MaxTD1= 5 Len=  102
 D1PCM: C-PCM CHGder 1st derivatives, ID1Alg=3 FixD1E=F DoIter=F DoCFld=F I1PDM=0.
 Calling FoFJK, ICntrl=      2127 FMM=F ISym2X=0 I1Cent= 0 IOpClX= 0 NMat=1 NMatS=1 NMatT=0.
 ***** Axes restored to original set *****
 -------------------------------------------------------------------
 Center     Atomic                   Forces (Hartrees/Bohr)
 Number     Number              X              Y              Z
 -------------------------------------------------------------------
      1        7           0.000133494    0.000002416    0.003444208
      2        8           0.000017607    0.000037073   -0.001143331
      3        8           0.000017501   -0.000038341   -0.001143678
      4        6          -0.000264076    0.000001088   -0.001072419
      5        1           0.000228249   -0.000002833    0.000003727
      6        1          -0.000066398   -0.000002746   -0.000042937
      7        1          -0.000066377    0.000003344   -0.000045570
 -------------------------------------------------------------------
 Cartesian Forces:  Max     0.003444208 RMS     0.000866953

 GradGradGradGradGradGradGradGradGradGradGradGradGradGradGradGradGradGrad
 Berny optimization.
 Using GEDIIS/GDIIS optimizer.
 FormGI is forming the generalized inverse of G from B-inverse, IUseBI=4.
 Internal  Forces:  Max     0.000830789 RMS     0.000436702
 Search for a local minimum.
 Step number   2 out of a maximum of   31
 All quantities printed in internal units (Hartrees-Bohrs-Radians)
 Mixed Optimization -- En-DIIS/RFO-DIIS
 Swapping is turned off.
 Update second derivatives using D2CorX and points    1    2
 DE=  2.33D-05 DEPred=-3.07D-06 R=-7.59D+00
 Trust test=-7.59D+00 RLast= 2.69D-02 DXMaxT set to 1.50D-01
 ITU= -1  0
     Eigenvalues ---    0.00540   0.06781   0.07949   0.07978   0.12009
     Eigenvalues ---    0.16000   0.16808   0.24799   0.25000   0.32002
     Eigenvalues ---    0.33875   0.34357   0.34536   1.01143   1.01148
 En-DIIS/RFO-DIIS IScMMF=        0 using points:     2    1
 RFO step:  Lambda=-1.38393059D-05.
 DidBck=T Rises=F RFO-DIIS coefs:    0.10641    0.89359
 Iteration  1 RMS(Cart)=  0.00365944 RMS(Int)=  0.00002478
 Iteration  2 RMS(Cart)=  0.00002676 RMS(Int)=  0.00000068
 Iteration  3 RMS(Cart)=  0.00000000 RMS(Int)=  0.00000068
 Variable       Old X    -DE/DX   Delta X   Delta X   Delta X     New X
                                 (Linear)    (Quad)   (Total)
    R1        2.28183   0.00002  -0.00001   0.00001   0.00001   2.28184
    R2        2.28185   0.00002  -0.00001   0.00002   0.00001   2.28185
    R3        2.81050   0.00016  -0.00038   0.00062   0.00024   2.81074
    R4        2.07175  -0.00005   0.00074  -0.00112  -0.00039   2.07137
    R5        2.06373   0.00003   0.00054  -0.00080  -0.00026   2.06347
    R6        2.06376   0.00003   0.00054  -0.00080  -0.00026   2.06350
    A1        2.17747  -0.00001  -0.00011   0.00058   0.00047   2.17795
    A2        2.05222   0.00005   0.00046  -0.00025   0.00021   2.05243
    A3        2.05205   0.00004   0.00047  -0.00026   0.00020   2.05225
    A4        1.85701  -0.00042   0.00008  -0.00042  -0.00034   1.85667
    A5        1.88193   0.00015   0.00161  -0.00231  -0.00070   1.88123
    A6        1.88177   0.00015   0.00161  -0.00231  -0.00070   1.88106
    A7        1.93303   0.00009  -0.00101   0.00155   0.00054   1.93357
    A8        1.93285   0.00009  -0.00100   0.00154   0.00054   1.93339
    A9        1.97208  -0.00007  -0.00106   0.00158   0.00053   1.97260
    D1       -1.54568  -0.00079  -0.00958  -0.00087  -0.01046  -1.55613
    D2        0.52881  -0.00083  -0.00989  -0.00047  -0.01036   0.51845
    D3        2.66331  -0.00075  -0.00928  -0.00127  -0.01055   2.65277
    D4        1.54097   0.00079   0.00985   0.00044   0.01029   1.55126
    D5       -2.66773   0.00074   0.00954   0.00085   0.01039  -2.65734
    D6       -0.53322   0.00083   0.01016   0.00005   0.01021  -0.52302
         Item               Value     Threshold  Converged?
 Maximum Force            0.000831     0.000450     NO 
 RMS     Force            0.000437     0.000300     NO 
 Maximum Displacement     0.011075     0.001800     NO 
 RMS     Displacement     0.003660     0.001200     NO 
 Predicted change in Energy=-2.454100D-05
 GradGradGradGradGradGradGradGradGradGradGradGradGradGradGradGradGradGrad

                          Input orientation:                          
 ---------------------------------------------------------------------
 Center     Atomic      Atomic             Coordinates (Angstroms)
 Number     Number       Type             X           Y           Z
 ---------------------------------------------------------------------
      1          7           0        0.168476    0.000008   -0.011814
      2          8           0        0.728109    1.069891    0.002694
      3          8           0        0.727559   -1.070167    0.002981
      4          6           0       -1.318875    0.000262   -0.002121
      5          1           0       -1.621118   -0.002108    1.051502
      6          1           0       -1.655528    0.912042   -0.499773
      7          1           0       -1.655694   -0.909305   -0.503728
 ---------------------------------------------------------------------
                    Distance matrix (angstroms):
                    1          2          3          4          5
     1  N    0.000000
     2  O    1.207497   0.000000
     3  O    1.207505   2.140058   0.000000
     4  C    1.487382   2.309604   2.309488   0.000000
     5  H    2.081656   2.787122   2.785037   1.096120   0.000000
     6  H    2.096878   2.441129   3.140226   1.091941   1.800919
     7  H    2.096765   3.139458   2.441828   1.091956   1.800817
                    6          7
     6  H    0.000000
     7  H    1.821352   0.000000
 Stoichiometry    CH3NO2
 Framework group  C1[X(CH3NO2)]
 Deg. of freedom    15
 Full point group                 C1      NOp   1
 Largest Abelian subgroup         C1      NOp   1
 Largest concise Abelian subgroup C1      NOp   1
                         Standard orientation:                         
 ---------------------------------------------------------------------
 Center     Atomic      Atomic             Coordinates (Angstroms)
 Number     Number       Type             X           Y           Z
 ---------------------------------------------------------------------
      1          7           0       -0.169133   -0.000006   -0.011702
      2          8           0       -0.728773   -1.069881    0.003108
      3          8           0       -0.728200    1.070177    0.003109
      4          6           0        1.318221   -0.000275   -0.002434
      5          1           0        1.620765    0.002233    1.051103
      6          1           0        1.654722   -0.912125   -0.500060
      7          1           0        1.654906    0.909222   -0.504258
 ---------------------------------------------------------------------
 Rotational constants (GHZ):     12.6589222     10.6105542      5.9946740
 Standard basis: def2SVP (5D, 7F)
 There are    75 symmetry adapted cartesian basis functions of A   symmetry.
 There are    71 symmetry adapted basis functions of A   symmetry.
    71 basis functions,   121 primitive gaussians,    75 cartesian basis functions
    16 alpha electrons       16 beta electrons
       nuclear repulsion energy       125.9536669755 Hartrees.
 NAtoms=    7 NActive=    7 NUniq=    7 SFac= 1.00D+00 NAtFMM=   60 NAOKFM=F Big=F
 Integral buffers will be    131072 words long.
 Raffenetti 2 integral format.
 Two-electron integral symmetry is turned on.
 ------------------------------------------------------------------------------
 Polarizable Continuum Model (PCM)
 =================================
 Model                : C-PCM.
 Atomic radii         : UFF (Universal Force Field).
 Polarization charges : Total charges.
 Charge compensation  : None.
 Solution method      : On-the-fly selection.
 Cavity type          : Scaled VdW (van der Waals Surface) (Alpha=1.100).
 Cavity algorithm     : GePol (No added spheres)
                        Default sphere list used, NSphG=    7.
                        Lebedev-Laikov grids with approx.  5.0 points / Ang**2.
                        Smoothing algorithm: Karplus/York (Gamma=1.0000).
                        Polarization charges: spherical gaussians, with
                                              point-specific exponents (IZeta= 3).
                        Self-potential: point-specific (ISelfS= 7).
                        Self-field    : sphere-specific E.n sum rule (ISelfD= 2).
 1st derivatives      : Analytical E(r).r(x)/FMM algorithm (CHGder, D1EAlg=3).
                        Cavity 1st derivative terms included.
 Solvent              : NitroMethane, Eps=  36.562000 Eps(inf)=   1.909095
 ------------------------------------------------------------------------------
 Spheres list:
 ISph  on   Nord     Re0    Alpha      Xe            Ye            Ze
    1   N      1    1.8300  1.100     -0.169133     -0.000006     -0.011702
    2   O      2    1.7500  1.100     -0.728773     -1.069881      0.003108
    3   O      3    1.7500  1.100     -0.728200      1.070177      0.003109
    4   C      4    1.9255  1.100      1.318221     -0.000275     -0.002434
    5   H      5    1.4430  1.100      1.620765      0.002233      1.051103
    6   H      6    1.4430  1.100      1.654722     -0.912125     -0.500060
    7   H      7    1.4430  1.100      1.654906      0.909222     -0.504258
 ------------------------------------------------------------------------------
 One-electron integrals computed using PRISM.
   1 Symmetry operations used in ECPInt.
 ECPInt:  NShTT=     561 NPrTT=    2077 LenC2=     562 LenP2D=    1814.
 LDataN:  DoStor=T MaxTD1= 4 Len=   56
 NBasis=    71 RedAO= T EigKep=  6.70D-03  NBF=    71
 NBsUse=    71 1.00D-06 EigRej= -1.00D+00 NBFU=    71
 Initial guess from the checkpoint file:  "MeNO2_opt.chk"
 B after Tr=     0.000000    0.000000    0.000000
         Rot=    1.000000    0.000006   -0.000293    0.000002 Ang=   0.03 deg.
 Keep R1 ints in memory in canonical form, NReq=6927169.
 Requested convergence on RMS density matrix=1.00D-08 within 128 cycles.
 Requested convergence on MAX density matrix=1.00D-06.
 Requested convergence on             energy=1.00D-06.
 No special actions if energy rises.
 Inv3:  Mode=1 IEnd=     1858107.
 Iteration    1 A*A^-1 deviation from unit magnitude is 4.66D-15 for    775.
 Iteration    1 A*A^-1 deviation from orthogonality  is 2.00D-15 for    638    283.
 Iteration    1 A^-1*A deviation from unit magnitude is 4.44D-15 for    775.
 Iteration    1 A^-1*A deviation from orthogonality  is 1.23D-15 for    629    335.
 Error on total polarization charges =  0.00280
 SCF Done:  E(RM062X) =  -244.721797406     A.U. after   10 cycles
            NFock= 10  Conv=0.48D-08     -V/T= 2.0070
   1 Symmetry operations used in ECPInt.
 ECPInt:  NShTT=     561 NPrTT=    2077 LenC2=     562 LenP2D=    1814.
 LDataN:  DoStor=T MaxTD1= 5 Len=  102
 D1PCM: C-PCM CHGder 1st derivatives, ID1Alg=3 FixD1E=F DoIter=F DoCFld=F I1PDM=0.
 Calling FoFJK, ICntrl=      2127 FMM=F ISym2X=0 I1Cent= 0 IOpClX= 0 NMat=1 NMatS=1 NMatT=0.
 ***** Axes restored to original set *****
 -------------------------------------------------------------------
 Center     Atomic                   Forces (Hartrees/Bohr)
 Number     Number              X              Y              Z
 -------------------------------------------------------------------
      1        7           0.000079760    0.000001934   -0.000001441
      2        8           0.000068055   -0.000076153    0.000039576
      3        8           0.000067466    0.000075327    0.000039643
      4        6           0.000016438    0.000001835   -0.000059769
      5        1          -0.000065028   -0.000003384    0.000088601
      6        1          -0.000083683    0.000059435   -0.000051585
      7        1          -0.000083008   -0.000058995   -0.000055025
 -------------------------------------------------------------------
 Cartesian Forces:  Max     0.000088601 RMS     0.000058835

 GradGradGradGradGradGradGradGradGradGradGradGradGradGradGradGradGradGrad
 Berny optimization.
 Using GEDIIS/GDIIS optimizer.
 FormGI is forming the generalized inverse of G from B-inverse, IUseBI=4.
 Internal  Forces:  Max     0.000214774 RMS     0.000079830
 Search for a local minimum.
 Step number   3 out of a maximum of   31
 All quantities printed in internal units (Hartrees-Bohrs-Radians)
 Mixed Optimization -- En-DIIS/RFO-DIIS
 Swapping is turned off.
 Update second derivatives using D2CorX and points    1    2    3
 DE= -2.46D-05 DEPred=-2.45D-05 R= 1.00D+00
 TightC=F SS=  1.41D+00  RLast= 2.55D-02 DXNew= 2.5227D-01 7.6405D-02
 Trust test= 1.00D+00 RLast= 2.55D-02 DXMaxT set to 1.50D-01
 ITU=  1 -1  0
     Eigenvalues ---    0.00540   0.07067   0.07954   0.07986   0.13377
     Eigenvalues ---    0.16000   0.16859   0.25000   0.26132   0.30798
     Eigenvalues ---    0.34280   0.34536   0.38474   1.01147   1.01258
 En-DIIS/RFO-DIIS IScMMF=        0 using points:     3    2    1
 RFO step:  Lambda=-2.30355856D-07.
 DidBck=T Rises=F RFO-DIIS coefs:    0.74397    0.02736    0.22867
 Iteration  1 RMS(Cart)=  0.00044024 RMS(Int)=  0.00000078
 Iteration  2 RMS(Cart)=  0.00000006 RMS(Int)=  0.00000077
 Variable       Old X    -DE/DX   Delta X   Delta X   Delta X     New X
                                 (Linear)    (Quad)   (Total)
    R1        2.28184  -0.00004   0.00000  -0.00002  -0.00003   2.28181
    R2        2.28185  -0.00004   0.00000  -0.00002  -0.00003   2.28183
    R3        2.81074   0.00021  -0.00016   0.00062   0.00046   2.81121
    R4        2.07137   0.00011   0.00029  -0.00001   0.00028   2.07164
    R5        2.06347   0.00009   0.00021   0.00002   0.00023   2.06370
    R6        2.06350   0.00010   0.00020   0.00002   0.00023   2.06373
    A1        2.17795  -0.00014  -0.00015  -0.00030  -0.00045   2.17750
    A2        2.05243   0.00007   0.00007   0.00016   0.00023   2.05265
    A3        2.05225   0.00007   0.00007   0.00015   0.00022   2.05247
    A4        1.85667   0.00000   0.00011  -0.00015  -0.00004   1.85663
    A5        1.88123   0.00008   0.00059  -0.00011   0.00048   1.88171
    A6        1.88106   0.00008   0.00059  -0.00012   0.00047   1.88153
    A7        1.93357  -0.00004  -0.00040   0.00014  -0.00025   1.93332
    A8        1.93339  -0.00004  -0.00039   0.00013  -0.00026   1.93313
    A9        1.97260  -0.00007  -0.00041   0.00008  -0.00032   1.97228
    D1       -1.55613   0.00001   0.00023  -0.00017   0.00005  -1.55608
    D2        0.51845   0.00000   0.00012  -0.00014  -0.00002   0.51843
    D3        2.65277   0.00002   0.00033  -0.00018   0.00014   2.65291
    D4        1.55126  -0.00001  -0.00011  -0.00017  -0.00028   1.55098
    D5       -2.65734  -0.00002  -0.00022  -0.00014  -0.00036  -2.65770
    D6       -0.52302   0.00000  -0.00001  -0.00018  -0.00019  -0.52321
         Item               Value     Threshold  Converged?
 Maximum Force            0.000215     0.000450     YES
 RMS     Force            0.000080     0.000300     YES
 Maximum Displacement     0.001005     0.001800     YES
 RMS     Displacement     0.000440     0.001200     YES
 Predicted change in Energy=-2.062125D-07
 Optimization completed.
    -- Stationary point found.
                           ----------------------------
                           !   Optimized Parameters   !
                           ! (Angstroms and Degrees)  !
 --------------------------                            --------------------------
 ! Name  Definition              Value          Derivative Info.                !
 --------------------------------------------------------------------------------
 ! R1    R(1,2)                  1.2075         -DE/DX =    0.0                 !
 ! R2    R(1,3)                  1.2075         -DE/DX =    0.0                 !
 ! R3    R(1,4)                  1.4874         -DE/DX =    0.0002              !
 ! R4    R(4,5)                  1.0961         -DE/DX =    0.0001              !
 ! R5    R(4,6)                  1.0919         -DE/DX =    0.0001              !
 ! R6    R(4,7)                  1.092          -DE/DX =    0.0001              !
 ! A1    A(2,1,3)              124.7872         -DE/DX =   -0.0001              !
 ! A2    A(2,1,4)              117.5955         -DE/DX =    0.0001              !
 ! A3    A(3,1,4)              117.5853         -DE/DX =    0.0001              !
 ! A4    A(1,4,5)              106.3794         -DE/DX =    0.0                 !
 ! A5    A(1,4,6)              107.7866         -DE/DX =    0.0001              !
 ! A6    A(1,4,7)              107.777          -DE/DX =    0.0001              !
 ! A7    A(5,4,6)              110.7857         -DE/DX =    0.0                 !
 ! A8    A(5,4,7)              110.7751         -DE/DX =    0.0                 !
 ! A9    A(6,4,7)              113.0219         -DE/DX =   -0.0001              !
 ! D1    D(2,1,4,5)            -89.16           -DE/DX =    0.0                 !
 ! D2    D(2,1,4,6)             29.7049         -DE/DX =    0.0                 !
 ! D3    D(2,1,4,7)            151.9924         -DE/DX =    0.0                 !
 ! D4    D(3,1,4,5)             88.8809         -DE/DX =    0.0                 !
 ! D5    D(3,1,4,6)           -152.2542         -DE/DX =    0.0                 !
 ! D6    D(3,1,4,7)            -29.9668         -DE/DX =    0.0                 !
 --------------------------------------------------------------------------------
 GradGradGradGradGradGradGradGradGradGradGradGradGradGradGradGradGradGrad

                          Input orientation:                          
 ---------------------------------------------------------------------
 Center     Atomic      Atomic             Coordinates (Angstroms)
 Number     Number       Type             X           Y           Z
 ---------------------------------------------------------------------
      1          7           0        0.168476    0.000008   -0.011814
      2          8           0        0.728109    1.069891    0.002694
      3          8           0        0.727559   -1.070167    0.002981
      4          6           0       -1.318875    0.000262   -0.002121
      5          1           0       -1.621118   -0.002108    1.051502
      6          1           0       -1.655528    0.912042   -0.499773
      7          1           0       -1.655694   -0.909305   -0.503728
 ---------------------------------------------------------------------
                    Distance matrix (angstroms):
                    1          2          3          4          5
     1  N    0.000000
     2  O    1.207497   0.000000
     3  O    1.207505   2.140058   0.000000
     4  C    1.487382   2.309604   2.309488   0.000000
     5  H    2.081656   2.787122   2.785037   1.096120   0.000000
     6  H    2.096878   2.441129   3.140226   1.091941   1.800919
     7  H    2.096765   3.139458   2.441828   1.091956   1.800817
                    6          7
     6  H    0.000000
     7  H    1.821352   0.000000
 Stoichiometry    CH3NO2
 Framework group  C1[X(CH3NO2)]
 Deg. of freedom    15
 Full point group                 C1      NOp   1
 Largest Abelian subgroup         C1      NOp   1
 Largest concise Abelian subgroup C1      NOp   1
                         Standard orientation:                         
 ---------------------------------------------------------------------
 Center     Atomic      Atomic             Coordinates (Angstroms)
 Number     Number       Type             X           Y           Z
 ---------------------------------------------------------------------
      1          7           0       -0.169133   -0.000006   -0.011702
      2          8           0       -0.728773   -1.069881    0.003108
      3          8           0       -0.728200    1.070177    0.003109
      4          6           0        1.318221   -0.000275   -0.002434
      5          1           0        1.620765    0.002233    1.051103
      6          1           0        1.654722   -0.912125   -0.500060
      7          1           0        1.654906    0.909222   -0.504258
 ---------------------------------------------------------------------
 Rotational constants (GHZ):     12.6589222     10.6105542      5.9946740

 **********************************************************************

            Population analysis using the SCF density.

 **********************************************************************

 Orbital symmetries:
       Occupied  (A) (A) (A) (A) (A) (A) (A) (A) (A) (A) (A) (A)
                 (A) (A) (A) (A)
       Virtual   (A) (A) (A) (A) (A) (A) (A) (A) (A) (A) (A) (A)
                 (A) (A) (A) (A) (A) (A) (A) (A) (A) (A) (A) (A)
                 (A) (A) (A) (A) (A) (A) (A) (A) (A) (A) (A) (A)
                 (A) (A) (A) (A) (A) (A) (A) (A) (A) (A) (A) (A)
                 (A) (A) (A) (A) (A) (A) (A)
 The electronic state is 1-A.
 Alpha  occ. eigenvalues --  -19.66919 -19.66912 -15.00736 -10.60927  -1.36692
 Alpha  occ. eigenvalues --   -1.17801  -0.90842  -0.69825  -0.64431  -0.62702
 Alpha  occ. eigenvalues --   -0.60941  -0.50988  -0.49027  -0.39191  -0.38500
 Alpha  occ. eigenvalues --   -0.38305
 Alpha virt. eigenvalues --   -0.01542   0.11558   0.16336   0.16680   0.17568
 Alpha virt. eigenvalues --    0.34161   0.42487   0.46780   0.49120   0.51701
 Alpha virt. eigenvalues --    0.62246   0.68276   0.69265   0.69381   0.77513
 Alpha virt. eigenvalues --    0.79760   0.81813   0.95999   0.96535   1.04195
 Alpha virt. eigenvalues --    1.04484   1.07338   1.13003   1.14057   1.27163
 Alpha virt. eigenvalues --    1.34682   1.39638   1.53138   1.64778   1.68782
 Alpha virt. eigenvalues --    1.77381   1.80679   1.82348   1.84887   2.01406
 Alpha virt. eigenvalues --    2.04197   2.19783   2.34474   2.41725   2.46515
 Alpha virt. eigenvalues --    2.48788   2.50586   2.66697   2.69609   2.70021
 Alpha virt. eigenvalues --    2.73176   2.84839   2.87107   2.91111   3.12749
 Alpha virt. eigenvalues --    3.24095   3.36831   3.47296   3.76027   3.79190
          Condensed to atoms (all electrons):
               1          2          3          4          5          6
     1  N    5.912043   0.306670   0.306488   0.317519  -0.011267  -0.016674
     2  O    0.306670   8.164476  -0.114174  -0.073997  -0.000200   0.006385
     3  O    0.306488  -0.114174   8.164717  -0.073990  -0.000197   0.004613
     4  C    0.317519  -0.073997  -0.073990   4.584757   0.399003   0.390750
     5  H   -0.011267  -0.000200  -0.000197   0.399003   0.510086  -0.010516
     6  H   -0.016674   0.006385   0.004613   0.390750  -0.010516   0.544414
     7  H   -0.016650   0.004593   0.006352   0.390772  -0.010510  -0.017368
               7
     1  N   -0.016650
     2  O    0.004593
     3  O    0.006352
     4  C    0.390772
     5  H   -0.010510
     6  H   -0.017368
     7  H    0.544301
 Mulliken charges:
               1
     1  N    0.201870
     2  O   -0.293752
     3  O   -0.293810
     4  C    0.065185
     5  H    0.123601
     6  H    0.098395
     7  H    0.098510
 Sum of Mulliken charges =   0.00000
 Mulliken charges with hydrogens summed into heavy atoms:
               1
     1  N    0.201870
     2  O   -0.293752
     3  O   -0.293810
     4  C    0.385692
 Electronic spatial extent (au):  <R**2>=            225.6912
 Charge=              0.0000 electrons
 Dipole moment (field-independent basis, Debye):
    X=              4.2897    Y=             -0.0007    Z=              0.0595  Tot=              4.2902
 Quadrupole moment (field-independent basis, Debye-Ang):
   XX=            -21.4454   YY=            -26.6051   ZZ=            -21.0694
   XY=             -0.0003   XZ=              0.1681   YZ=              0.0000
 Traceless Quadrupole moment (field-independent basis, Debye-Ang):
   XX=              1.5945   YY=             -3.5651   ZZ=              1.9706
   XY=             -0.0003   XZ=              0.1681   YZ=              0.0000
 Octapole moment (field-independent basis, Debye-Ang**2):
  XXX=              3.6406  YYY=             -0.0077  ZZZ=              1.0782  XYY=              3.3857
  XXY=              0.0019  XXZ=              0.1776  XZZ=             -0.0739  YZZ=              0.0064
  YYZ=             -0.8220  XYZ=             -0.0002
 Hexadecapole moment (field-independent basis, Debye-Ang**3):
 XXXX=           -132.9535 YYYY=           -103.7973 ZZZZ=            -22.1121 XXXY=              0.0019
 XXXZ=              0.4119 YYYX=             -0.0100 YYYZ=              0.0003 ZZZX=              1.8914
 ZZZY=              0.0005 XXYY=            -39.0524 XXZZ=            -24.3326 YYZZ=            -19.9473
 XXYZ=             -0.0006 YYXZ=             -1.5031 ZZXY=              0.0118
 N-N= 1.259536669755D+02 E-N=-8.260149697746D+02  KE= 2.430284822249D+02
 1\1\GINC-DC2S6B1A\FOpt\RM062X\def2SVP\C1H3N1O2\CHMBNN\28-Jul-2021\0\\#
  opt freq scrf=(cpcm,solvent=nitromethane) def2svp m062x temperature=3
 63.15\\MeNO2 opt\\0,1\N,0.1684757254,0.0000081943,-0.0118138272\O,0.72
 81087308,1.0698910936,0.0026936336\O,0.7275589973,-1.0701670917,0.0029
 806369\C,-1.3188748023,0.0002615829,-0.0021211757\H,-1.6211183111,-0.0
 021083608,1.0515022854\H,-1.6555277857,0.9120420354,-0.4997729647\H,-1
 .6556935544,-0.9093054538,-0.5037275883\\Version=ES64L-G09RevD.01\Stat
 e=1-A\HF=-244.7217974\RMSD=4.832e-09\RMSF=5.883e-05\Dipole=-1.6877091,
 0.0002608,0.0238793\Quadrupole=1.1854148,-2.6505718,1.465157,-0.000208
 1,-0.1248628,0.000555\PG=C01 [X(C1H3N1O2)]\\@


 BLACK HOLES SUCK.
 Job cpu time:       0 days  0 hours  1 minutes  6.1 seconds.
 File lengths (MBytes):  RWF=     12 Int=      0 D2E=      0 Chk=      2 Scr=      1
 Normal termination of Gaussian 09 at Wed Jul 28 21:25:32 2021.
 Link1:  Proceeding to internal job step number  2.
 -------------------------------------------------------------------
 #N Geom=AllCheck Guess=TCheck SCRF=Check GenChk RM062X/def2SVP Freq
 -------------------------------------------------------------------
 1/10=4,29=7,30=1,38=1,40=1,112=363150/1,3;
 2/12=2,40=1/2;
 3/5=43,7=101,11=2,14=-4,16=1,25=1,30=1,70=2,71=2,72=15,74=-55,116=1,140=1/1,2,3;
 4/5=101/1;
 5/5=2,53=15,98=1/2;
 8/6=4,10=90,11=11/1;
 11/6=1,8=1,9=11,15=111,16=1/1,2,10;
 10/6=1/2;
 6/7=2,8=2,9=2,10=2,18=1,28=1/1;
 7/8=1,10=1,25=1/1,2,3,16;
 1/10=4,30=1/3;
 99//99;
 Structure from the checkpoint file:  "MeNO2_opt.chk"
 ---------
 MeNO2 opt
 ---------
 Charge =  0 Multiplicity = 1
 Redundant internal coordinates found in file.
 N,0,0.1684757254,0.0000081943,-0.0118138272
 O,0,0.7281087308,1.0698910936,0.0026936336
 O,0,0.7275589973,-1.0701670917,0.0029806369
 C,0,-1.3188748023,0.0002615829,-0.0021211757
 H,0,-1.6211183111,-0.0021083608,1.0515022854
 H,0,-1.6555277857,0.9120420354,-0.4997729647
 H,0,-1.6556935544,-0.9093054538,-0.5037275883
 Recover connectivity data from disk.

 GradGradGradGradGradGradGradGradGradGradGradGradGradGradGradGradGradGrad
 Berny optimization.
 Initialization pass.
                           ----------------------------
                           !    Initial Parameters    !
                           ! (Angstroms and Degrees)  !
 --------------------------                            --------------------------
 ! Name  Definition              Value          Derivative Info.                !
 --------------------------------------------------------------------------------
 ! R1    R(1,2)                  1.2075         calculate D2E/DX2 analytically  !
 ! R2    R(1,3)                  1.2075         calculate D2E/DX2 analytically  !
 ! R3    R(1,4)                  1.4874         calculate D2E/DX2 analytically  !
 ! R4    R(4,5)                  1.0961         calculate D2E/DX2 analytically  !
 ! R5    R(4,6)                  1.0919         calculate D2E/DX2 analytically  !
 ! R6    R(4,7)                  1.092          calculate D2E/DX2 analytically  !
 ! A1    A(2,1,3)              124.7872         calculate D2E/DX2 analytically  !
 ! A2    A(2,1,4)              117.5955         calculate D2E/DX2 analytically  !
 ! A3    A(3,1,4)              117.5853         calculate D2E/DX2 analytically  !
 ! A4    A(1,4,5)              106.3794         calculate D2E/DX2 analytically  !
 ! A5    A(1,4,6)              107.7866         calculate D2E/DX2 analytically  !
 ! A6    A(1,4,7)              107.777          calculate D2E/DX2 analytically  !
 ! A7    A(5,4,6)              110.7857         calculate D2E/DX2 analytically  !
 ! A8    A(5,4,7)              110.7751         calculate D2E/DX2 analytically  !
 ! A9    A(6,4,7)              113.0219         calculate D2E/DX2 analytically  !
 ! D1    D(2,1,4,5)            -89.16           calculate D2E/DX2 analytically  !
 ! D2    D(2,1,4,6)             29.7049         calculate D2E/DX2 analytically  !
 ! D3    D(2,1,4,7)            151.9924         calculate D2E/DX2 analytically  !
 ! D4    D(3,1,4,5)             88.8809         calculate D2E/DX2 analytically  !
 ! D5    D(3,1,4,6)           -152.2542         calculate D2E/DX2 analytically  !
 ! D6    D(3,1,4,7)            -29.9668         calculate D2E/DX2 analytically  !
 --------------------------------------------------------------------------------
 Trust Radius=3.00D-01 FncErr=1.00D-07 GrdErr=1.00D-07
 Number of steps in this run=      2 maximum allowed number of steps=      2.
 GradGradGradGradGradGradGradGradGradGradGradGradGradGradGradGradGradGrad

                          Input orientation:                          
 ---------------------------------------------------------------------
 Center     Atomic      Atomic             Coordinates (Angstroms)
 Number     Number       Type             X           Y           Z
 ---------------------------------------------------------------------
      1          7           0        0.168476    0.000008   -0.011814
      2          8           0        0.728109    1.069891    0.002694
      3          8           0        0.727559   -1.070167    0.002981
      4          6           0       -1.318875    0.000262   -0.002121
      5          1           0       -1.621118   -0.002108    1.051502
      6          1           0       -1.655528    0.912042   -0.499773
      7          1           0       -1.655694   -0.909305   -0.503728
 ---------------------------------------------------------------------
                    Distance matrix (angstroms):
                    1          2          3          4          5
     1  N    0.000000
     2  O    1.207497   0.000000
     3  O    1.207505   2.140058   0.000000
     4  C    1.487382   2.309604   2.309488   0.000000
     5  H    2.081656   2.787122   2.785037   1.096120   0.000000
     6  H    2.096878   2.441129   3.140226   1.091941   1.800919
     7  H    2.096765   3.139458   2.441828   1.091956   1.800817
                    6          7
     6  H    0.000000
     7  H    1.821352   0.000000
 Stoichiometry    CH3NO2
 Framework group  C1[X(CH3NO2)]
 Deg. of freedom    15
 Full point group                 C1      NOp   1
 Largest Abelian subgroup         C1      NOp   1
 Largest concise Abelian subgroup C1      NOp   1
                         Standard orientation:                         
 ---------------------------------------------------------------------
 Center     Atomic      Atomic             Coordinates (Angstroms)
 Number     Number       Type             X           Y           Z
 ---------------------------------------------------------------------
      1          7           0       -0.169133   -0.000006   -0.011702
      2          8           0       -0.728773   -1.069881    0.003108
      3          8           0       -0.728200    1.070177    0.003109
      4          6           0        1.318221   -0.000275   -0.002434
      5          1           0        1.620765    0.002233    1.051103
      6          1           0        1.654722   -0.912125   -0.500060
      7          1           0        1.654906    0.909222   -0.504258
 ---------------------------------------------------------------------
 Rotational constants (GHZ):     12.6589222     10.6105542      5.9946740
 Standard basis: def2SVP (5D, 7F)
 There are    75 symmetry adapted cartesian basis functions of A   symmetry.
 There are    71 symmetry adapted basis functions of A   symmetry.
    71 basis functions,   121 primitive gaussians,    75 cartesian basis functions
    16 alpha electrons       16 beta electrons
       nuclear repulsion energy       125.9536669755 Hartrees.
 NAtoms=    7 NActive=    7 NUniq=    7 SFac= 1.00D+00 NAtFMM=   60 NAOKFM=F Big=F
 Integral buffers will be    131072 words long.
 Raffenetti 2 integral format.
 Two-electron integral symmetry is turned on.
 Force inversion solution in PCM.
 ------------------------------------------------------------------------------
 Polarizable Continuum Model (PCM)
 =================================
 Model                : C-PCM.
 Atomic radii         : UFF (Universal Force Field).
 Polarization charges : Total charges.
 Charge compensation  : None.
 Solution method      : Matrix inversion.
 Cavity type          : Scaled VdW (van der Waals Surface) (Alpha=1.100).
 Cavity algorithm     : GePol (No added spheres)
                        Default sphere list used, NSphG=    7.
                        Lebedev-Laikov grids with approx.  5.0 points / Ang**2.
                        Smoothing algorithm: Karplus/York (Gamma=1.0000).
                        Polarization charges: spherical gaussians, with
                                              point-specific exponents (IZeta= 3).
                        Self-potential: point-specific (ISelfS= 7).
                        Self-field    : sphere-specific E.n sum rule (ISelfD= 2).
 1st derivatives      : Analytical E(r).r(x)/FMM algorithm (CHGder, D1EAlg=3).
                        Cavity 1st derivative terms included.
 2nd derivatives      : Analytical E(r).r(xy)/FMM algorithm (CHGder, D2EAlg=3).
                        Cavity 2nd derivative terms included.
 Solvent              : NitroMethane, Eps=  36.562000 Eps(inf)=   1.909095
 ------------------------------------------------------------------------------
 Spheres list:
 ISph  on   Nord     Re0    Alpha      Xe            Ye            Ze
    1   N      1    1.8300  1.100     -0.169133     -0.000006     -0.011702
    2   O      2    1.7500  1.100     -0.728773     -1.069881      0.003108
    3   O      3    1.7500  1.100     -0.728200      1.070177      0.003109
    4   C      4    1.9255  1.100      1.318221     -0.000275     -0.002434
    5   H      5    1.4430  1.100      1.620765      0.002233      1.051103
    6   H      6    1.4430  1.100      1.654722     -0.912125     -0.500060
    7   H      7    1.4430  1.100      1.654906      0.909222     -0.504258
 ------------------------------------------------------------------------------
 One-electron integrals computed using PRISM.
   1 Symmetry operations used in ECPInt.
 ECPInt:  NShTT=     561 NPrTT=    2077 LenC2=     562 LenP2D=    1814.
 LDataN:  DoStor=T MaxTD1= 4 Len=   56
 NBasis=    71 RedAO= T EigKep=  6.70D-03  NBF=    71
 NBsUse=    71 1.00D-06 EigRej= -1.00D+00 NBFU=    71
 Initial guess from the checkpoint file:  "MeNO2_opt.chk"
 B after Tr=     0.000000    0.000000    0.000000
         Rot=    1.000000    0.000000    0.000000    0.000000 Ang=   0.00 deg.
 Keep R1 ints in memory in canonical form, NReq=6927169.
 Requested convergence on RMS density matrix=1.00D-08 within 128 cycles.
 Requested convergence on MAX density matrix=1.00D-06.
 Requested convergence on             energy=1.00D-06.
 No special actions if energy rises.
 Inv3:  Mode=1 IEnd=     1858107.
 Iteration    1 A*A^-1 deviation from unit magnitude is 4.22D-15 for    775.
 Iteration    1 A*A^-1 deviation from orthogonality  is 1.86D-15 for    637    282.
 Iteration    1 A^-1*A deviation from unit magnitude is 4.00D-15 for    775.
 Iteration    1 A^-1*A deviation from orthogonality  is 1.11D-15 for    555    368.
 Error on total polarization charges =  0.00280
 SCF Done:  E(RM062X) =  -244.721797406     A.U. after    1 cycles
            NFock=  1  Conv=0.29D-08     -V/T= 2.0070
 DoSCS=F DFT=T ScalE2(SS,OS)=  1.000000  1.000000
 Range of M.O.s used for correlation:     1    71
 NBasis=    71 NAE=    16 NBE=    16 NFC=     0 NFV=     0
 NROrb=     71 NOA=    16 NOB=    16 NVA=    55 NVB=    55
   1 Symmetry operations used in ECPInt.
 ECPInt:  NShTT=     561 NPrTT=    2077 LenC2=     562 LenP2D=    1814.
 LDataN:  DoStor=T MaxTD1= 5 Len=  102
 Symmetrizing basis deriv contribution to polar:
 IMax=3 JMax=2 DiffMx= 0.00D+00
 G2DrvN: will do     8 centers at a time, making    1 passes.
 Calling FoFCou, ICntrl=  3107 FMM=F I1Cent=   0 AccDes= 0.00D+00.
 NEqPCM:  Using equilibrium solvation (IEInf=0, Eps=  36.5620, EpsInf=   1.9091)
 G2PCM: DoFxE=T DoFxN=T DoGrad=T DoDP/DQ/DG/TGxP=FFFF NFrqRd=   0 IEInf=0 SqF1=F DoCFld=F IF1Alg=4.
 End of G2Drv F.D. properties file   721 does not exist.
 End of G2Drv F.D. properties file   722 does not exist.
 End of G2Drv F.D. properties file   788 does not exist.
          IDoAtm=1111111
 NEqPCM:  Using equilibrium solvation (IEInf=0, Eps=  36.5620, EpsInf=   1.9091)
          Differentiating once with respect to electric field.
                with respect to dipole field.
          Differentiating once with respect to nuclear coordinates.
 Keep R1 ints in memory in canonical form, NReq=6148116.
          There are    24 degrees of freedom in the 1st order CPHF.  IDoFFX=6 NUNeed=     3.
     21 vectors produced by pass  0 Test12= 3.67D-15 4.17D-09 XBig12= 2.28D+01 3.74D+00.
 AX will form    21 AO Fock derivatives at one time.
     21 vectors produced by pass  1 Test12= 3.67D-15 4.17D-09 XBig12= 7.28D+00 8.28D-01.
     21 vectors produced by pass  2 Test12= 3.67D-15 4.17D-09 XBig12= 9.24D-02 6.78D-02.
     21 vectors produced by pass  3 Test12= 3.67D-15 4.17D-09 XBig12= 3.98D-04 5.25D-03.
     21 vectors produced by pass  4 Test12= 3.67D-15 4.17D-09 XBig12= 1.49D-06 3.28D-04.
     21 vectors produced by pass  5 Test12= 3.67D-15 4.17D-09 XBig12= 3.37D-09 1.36D-05.
     12 vectors produced by pass  6 Test12= 3.67D-15 4.17D-09 XBig12= 6.94D-12 5.99D-07.
      2 vectors produced by pass  7 Test12= 3.67D-15 4.17D-09 XBig12= 1.81D-14 3.00D-08.
 InvSVY:  IOpt=1 It=  1 EMax= 4.44D-15
 Solved reduced A of dimension   140 with    24 vectors.
 Isotropic polarizability for W=    0.000000       28.72 Bohr**3.
 End of Minotr F.D. properties file   721 does not exist.
 End of Minotr F.D. properties file   722 does not exist.
 End of Minotr F.D. properties file   788 does not exist.

 **********************************************************************

            Population analysis using the SCF density.

 **********************************************************************

 Orbital symmetries:
       Occupied  (A) (A) (A) (A) (A) (A) (A) (A) (A) (A) (A) (A)
                 (A) (A) (A) (A)
       Virtual   (A) (A) (A) (A) (A) (A) (A) (A) (A) (A) (A) (A)
                 (A) (A) (A) (A) (A) (A) (A) (A) (A) (A) (A) (A)
                 (A) (A) (A) (A) (A) (A) (A) (A) (A) (A) (A) (A)
                 (A) (A) (A) (A) (A) (A) (A) (A) (A) (A) (A) (A)
                 (A) (A) (A) (A) (A) (A) (A)
 The electronic state is 1-A.
 Alpha  occ. eigenvalues --  -19.66919 -19.66912 -15.00736 -10.60927  -1.36692
 Alpha  occ. eigenvalues --   -1.17801  -0.90842  -0.69825  -0.64431  -0.62702
 Alpha  occ. eigenvalues --   -0.60941  -0.50988  -0.49027  -0.39191  -0.38500
 Alpha  occ. eigenvalues --   -0.38305
 Alpha virt. eigenvalues --   -0.01542   0.11558   0.16336   0.16680   0.17568
 Alpha virt. eigenvalues --    0.34161   0.42487   0.46780   0.49120   0.51701
 Alpha virt. eigenvalues --    0.62246   0.68276   0.69265   0.69381   0.77513
 Alpha virt. eigenvalues --    0.79760   0.81813   0.95999   0.96535   1.04195
 Alpha virt. eigenvalues --    1.04484   1.07338   1.13003   1.14057   1.27163
 Alpha virt. eigenvalues --    1.34682   1.39638   1.53138   1.64778   1.68782
 Alpha virt. eigenvalues --    1.77381   1.80679   1.82348   1.84887   2.01406
 Alpha virt. eigenvalues --    2.04197   2.19783   2.34474   2.41725   2.46515
 Alpha virt. eigenvalues --    2.48788   2.50586   2.66697   2.69609   2.70021
 Alpha virt. eigenvalues --    2.73176   2.84839   2.87107   2.91111   3.12749
 Alpha virt. eigenvalues --    3.24095   3.36831   3.47296   3.76027   3.79190
          Condensed to atoms (all electrons):
               1          2          3          4          5          6
     1  N    5.912043   0.306670   0.306489   0.317519  -0.011267  -0.016674
     2  O    0.306670   8.164476  -0.114174  -0.073997  -0.000200   0.006385
     3  O    0.306489  -0.114174   8.164717  -0.073990  -0.000197   0.004613
     4  C    0.317519  -0.073997  -0.073990   4.584758   0.399003   0.390750
     5  H   -0.011267  -0.000200  -0.000197   0.399003   0.510086  -0.010516
     6  H   -0.016674   0.006385   0.004613   0.390750  -0.010516   0.544414
     7  H   -0.016650   0.004593   0.006352   0.390772  -0.010510  -0.017368
               7
     1  N   -0.016650
     2  O    0.004593
     3  O    0.006352
     4  C    0.390772
     5  H   -0.010510
     6  H   -0.017368
     7  H    0.544301
 Mulliken charges:
               1
     1  N    0.201870
     2  O   -0.293752
     3  O   -0.293810
     4  C    0.065185
     5  H    0.123601
     6  H    0.098395
     7  H    0.098510
 Sum of Mulliken charges =   0.00000
 Mulliken charges with hydrogens summed into heavy atoms:
               1
     1  N    0.201870
     2  O   -0.293752
     3  O   -0.293810
     4  C    0.385692
 APT charges:
               1
     1  N    1.356070
     2  O   -0.826089
     3  O   -0.826286
     4  C    0.058495
     5  H    0.084586
     6  H    0.076577
     7  H    0.076647
 Sum of APT charges =   0.00000
 APT charges with hydrogens summed into heavy atoms:
               1
     1  N    1.356070
     2  O   -0.826089
     3  O   -0.826286
     4  C    0.296306
 Electronic spatial extent (au):  <R**2>=            225.6912
 Charge=              0.0000 electrons
 Dipole moment (field-independent basis, Debye):
    X=              4.2897    Y=             -0.0007    Z=              0.0595  Tot=              4.2902
 Quadrupole moment (field-independent basis, Debye-Ang):
   XX=            -21.4454   YY=            -26.6051   ZZ=            -21.0694
   XY=             -0.0003   XZ=              0.1681   YZ=              0.0000
 Traceless Quadrupole moment (field-independent basis, Debye-Ang):
   XX=              1.5945   YY=             -3.5651   ZZ=              1.9706
   XY=             -0.0003   XZ=              0.1681   YZ=              0.0000
 Octapole moment (field-independent basis, Debye-Ang**2):
  XXX=              3.6406  YYY=             -0.0077  ZZZ=              1.0782  XYY=              3.3857
  XXY=              0.0019  XXZ=              0.1776  XZZ=             -0.0739  YZZ=              0.0064
  YYZ=             -0.8220  XYZ=             -0.0002
 Hexadecapole moment (field-independent basis, Debye-Ang**3):
 XXXX=           -132.9535 YYYY=           -103.7973 ZZZZ=            -22.1120 XXXY=              0.0019
 XXXZ=              0.4119 YYYX=             -0.0100 YYYZ=              0.0003 ZZZX=              1.8914
 ZZZY=              0.0005 XXYY=            -39.0524 XXZZ=            -24.3326 YYZZ=            -19.9473
 XXYZ=             -0.0006 YYXZ=             -1.5031 ZZXY=              0.0118
 N-N= 1.259536669755D+02 E-N=-8.260149716083D+02  KE= 2.430284830111D+02
  Exact polarizability:  28.196   0.006  39.092   0.149   0.000  18.870
 Approx polarizability:  25.908   0.010  47.399   0.215   0.000  18.803
   1 Symmetry operations used in ECPInt.
 ECPInt:  NShTT=     561 NPrTT=    2077 LenC2=     562 LenP2D=    1814.
 LDataN:  DoStor=T MaxTD1= 6 Len=  172
 D2PCM: C-PCM CHGder 2nd derivatives, FixD1E=F FixD2E=F DoIter=F DoCFld=F I1PDM=0
 Calling FoFJK, ICntrl=    100127 FMM=F ISym2X=0 I1Cent= 0 IOpClX= 0 NMat=1 NMatS=1 NMatT=0.
 Full mass-weighted force constant matrix:
 Low frequencies --- -116.0124  -54.5365  -46.7678  -43.8764   -0.0019   -0.0017
 Low frequencies ---   -0.0017  499.2985  625.9646
 ******    1 imaginary frequencies (negative Signs) ****** 
 Diagonal vibrational polarizability:
        4.9601766       6.6646907       1.0471311
 Harmonic frequencies (cm**-1), IR intensities (KM/Mole), Raman scattering
 activities (A**4/AMU), depolarization ratios for plane and unpolarized
 incident light, reduced masses (AMU), force constants (mDyne/A),
 and normal coordinates:
                      1                      2                      3
                      A                      A                      A
 Frequencies --   -110.5495               499.2935               625.9601
 Red. masses --      1.0973                 3.2388                 3.0803
 Frc consts  --      0.0079                 0.4757                 0.7111
 IR Inten    --      0.1690                 0.9254                11.5860
  Atom  AN      X      Y      Z        X      Y      Z        X      Y      Z
     1   7     0.00   0.01   0.00     0.00   0.15   0.00     0.01   0.00   0.33
     2   8     0.01   0.00   0.05     0.22   0.05  -0.01    -0.05   0.02  -0.13
     3   8    -0.01   0.00  -0.05    -0.22   0.05   0.01    -0.05  -0.02  -0.13
     4   6     0.00  -0.01   0.00     0.00  -0.21   0.00     0.08   0.00   0.00
     5   1     0.00  -0.62   0.00     0.00  -0.29   0.00     0.75   0.00  -0.19
     6   1    -0.03   0.25  -0.49    -0.44  -0.42   0.09    -0.23   0.03  -0.26
     7   1     0.03   0.25   0.49     0.44  -0.42  -0.09    -0.24  -0.03  -0.26
                      4                      5                      6
                      A                      A                      A
 Frequencies --    701.8238               987.2154              1110.2353
 Red. masses --      6.0807                 8.8184                 1.4059
 Frc consts  --      1.7646                 5.0637                 1.0210
 IR Inten    --     45.5339                17.5781                13.5769
  Atom  AN      X      Y      Z        X      Y      Z        X      Y      Z
     1   7    -0.07   0.00   0.13     0.39   0.00   0.02     0.00   0.01   0.00
     2   8     0.24  -0.17  -0.05     0.00   0.38  -0.01     0.04   0.04   0.00
     3   8     0.24   0.17  -0.05     0.00  -0.38  -0.01    -0.04   0.04   0.00
     4   6    -0.44   0.00  -0.01    -0.37   0.00  -0.02     0.00  -0.16   0.00
     5   1    -0.21   0.00  -0.08    -0.38   0.00  -0.02    -0.01   0.28   0.00
     6   1    -0.52   0.01  -0.06    -0.37  -0.01   0.04     0.65   0.13  -0.11
     7   1    -0.52  -0.01  -0.06    -0.37   0.02   0.04    -0.64   0.13   0.11
                      7                      8                      9
                      A                      A                      A
 Frequencies --   1130.8695              1387.0784              1423.5350
 Red. masses --      1.6404                 1.1907                 1.0467
 Frc consts  --      1.2360                 1.3498                 1.2497
 IR Inten    --      6.5882                11.9155                56.1660
  Atom  AN      X      Y      Z        X      Y      Z        X      Y      Z
     1   7     0.00   0.00   0.16     0.00   0.00   0.01     0.00   0.01   0.00
     2   8     0.00   0.00  -0.03     0.00   0.00   0.00    -0.01  -0.01   0.00
     3   8     0.00   0.00  -0.03     0.00   0.00   0.00     0.01  -0.01   0.00
     4   6     0.01   0.00  -0.16     0.13   0.00   0.01     0.00  -0.05   0.00
     5   1    -0.68   0.00   0.04    -0.61   0.00   0.22     0.00   0.71   0.00
     6   1     0.35  -0.13   0.31    -0.48  -0.10  -0.21    -0.29   0.07  -0.39
     7   1     0.36   0.13   0.31    -0.48   0.10  -0.21     0.29   0.07   0.39
                     10                     11                     12
                      A                      A                      A
 Frequencies --   1442.5644              1555.3771              1770.0184
 Red. masses --      1.0531                13.4461                11.5086
 Frc consts  --      1.2912                19.1655                21.2436
 IR Inten    --     22.6655               146.4973               599.0508
  Atom  AN      X      Y      Z        X      Y      Z        X      Y      Z
     1   7    -0.01   0.00   0.03     0.70   0.00  -0.01     0.00   0.74   0.00
     2   8     0.01   0.01   0.00    -0.26  -0.36   0.01    -0.15  -0.30   0.00
     3   8     0.01  -0.01   0.00    -0.26   0.36   0.01     0.15  -0.30   0.00
     4   6    -0.03   0.00   0.05    -0.10   0.00   0.01     0.00  -0.05   0.00
     5   1    -0.29   0.00   0.11    -0.22   0.00   0.04     0.00  -0.11   0.00
     6   1     0.30   0.39  -0.46    -0.05   0.10  -0.12     0.31   0.03   0.09
     7   1     0.30  -0.39  -0.46    -0.05  -0.10  -0.12    -0.31   0.03  -0.09
                     13                     14                     15
                      A                      A                      A
 Frequencies --   3106.2451              3227.6348              3261.4743
 Red. masses --      1.0309                 1.1073                 1.1138
 Frc consts  --      5.8606                 6.7963                 6.9806
 IR Inten    --      0.6629                 3.2672                 1.8774
  Atom  AN      X      Y      Z        X      Y      Z        X      Y      Z
     1   7     0.00   0.00   0.00     0.00   0.00   0.00     0.00   0.00   0.00
     2   8     0.00   0.00   0.00     0.00   0.00   0.00     0.00   0.00   0.00
     3   8     0.00   0.00   0.00     0.00   0.00   0.00     0.00   0.00   0.00
     4   6    -0.04   0.00  -0.01    -0.01   0.00   0.09     0.00   0.10   0.00
     5   1     0.18   0.00   0.65    -0.20   0.00  -0.70     0.00   0.01   0.00
     6   1     0.16  -0.43  -0.24     0.15  -0.41  -0.21     0.21  -0.59  -0.32
     7   1     0.16   0.43  -0.24     0.15   0.41  -0.22    -0.21  -0.59   0.33

 -------------------
 - Thermochemistry -
 -------------------
 Temperature   363.150 Kelvin.  Pressure   1.00000 Atm.
 Atom     1 has atomic number  7 and mass  14.00307
 Atom     2 has atomic number  8 and mass  15.99491
 Atom     3 has atomic number  8 and mass  15.99491
 Atom     4 has atomic number  6 and mass  12.00000
 Atom     5 has atomic number  1 and mass   1.00783
 Atom     6 has atomic number  1 and mass   1.00783
 Atom     7 has atomic number  1 and mass   1.00783
 Molecular mass:    61.01638 amu.
 Principal axes and moments of inertia in atomic units:
                           1         2         3
     Eigenvalues --   142.56674 170.08925 301.05744
           X            1.00000  -0.00014   0.00101
           Y            0.00014   1.00000   0.00000
           Z           -0.00101   0.00000   1.00000
 This molecule is an asymmetric top.
 Rotational symmetry number  1.
 Rotational temperatures (Kelvin)      0.60753     0.50923     0.28770
 Rotational constants (GHZ):          12.65892    10.61055     5.99467
    1 imaginary frequencies ignored.
 Zero-point vibrational energy     132960.9 (Joules/Mol)
                                   31.77842 (Kcal/Mol)
 Warning -- explicit consideration of   3 degrees of freedom as
           vibrations may cause significant error
 Vibrational temperatures:    718.37   900.62  1009.77  1420.38  1597.38
          (Kelvin)           1627.07  1995.69  2048.15  2075.53  2237.84
                             2546.66  4469.19  4643.84  4692.53
 
 Zero-point correction=                           0.050642 (Hartree/Particle)
 Thermal correction to Energy=                    0.055237
 Thermal correction to Enthalpy=                  0.056387
 Thermal correction to Gibbs Free Energy=         0.018187
 Sum of electronic and zero-point Energies=           -244.671155
 Sum of electronic and thermal Energies=              -244.666561
 Sum of electronic and thermal Enthalpies=            -244.665411
 Sum of electronic and thermal Free Energies=         -244.703611
 
                     E (Thermal)             CV                S
                      KCal/Mol        Cal/Mol-Kelvin    Cal/Mol-Kelvin
 Total                   34.661             12.233             66.008
 Electronic               0.000              0.000              0.000
 Translational            1.082              2.981             39.225
 Rotational               1.082              2.981             24.093
 Vibrational             32.497              6.272              2.690
 Vibration     1          0.943              1.449              0.927
 Vibration     2          1.058              1.219              0.624
 Vibration     3          1.136              1.083              0.492
                       Q            Log10(Q)             Ln(Q)
 Total Bot       0.135512D-06         -6.868022        -15.814206
 Total V=0       0.180452D+13         12.256363         28.221318
 Vib (Bot)       0.107456D-18        -18.968771        -43.677209
 Vib (Bot)    1  0.431620D+00         -0.364898         -0.840209
 Vib (Bot)    2  0.315831D+00         -0.500545         -1.152548
 Vib (Bot)    3  0.265463D+00         -0.575996         -1.326281
 Vib (V=0)       0.143092D+01          0.155614          0.358315
 Vib (V=0)    1  0.116053D+01          0.064655          0.148874
 Vib (V=0)    2  0.109140D+01          0.037982          0.087458
 Vib (V=0)    3  0.106610D+01          0.027798          0.064008
 Electronic      0.100000D+01          0.000000          0.000000
 Translational   0.306728D+08          7.486753         17.238886
 Rotational      0.411145D+05          4.613995         10.624117
 ***** Axes restored to original set *****
 -------------------------------------------------------------------
 Center     Atomic                   Forces (Hartrees/Bohr)
 Number     Number              X              Y              Z
 -------------------------------------------------------------------
      1        7           0.000079772    0.000001754   -0.000001441
      2        8           0.000068081   -0.000076060    0.000039575
      3        8           0.000067442    0.000075397    0.000039645
      4        6           0.000016435    0.000001848   -0.000059771
      5        1          -0.000065030   -0.000003384    0.000088613
      6        1          -0.000083690    0.000059449   -0.000051592
      7        1          -0.000083010   -0.000059004   -0.000055030
 -------------------------------------------------------------------
 Cartesian Forces:  Max     0.000088613 RMS     0.000058838
 FormGI is forming the generalized inverse of G from B-inverse, IUseBI=4.

 GradGradGradGradGradGradGradGradGradGradGradGradGradGradGradGradGradGrad
 Berny optimization.
 Internal  Forces:  Max     0.000214789 RMS     0.000079833
 Search for a local minimum.
 Step number   1 out of a maximum of    2
 All quantities printed in internal units (Hartrees-Bohrs-Radians)
 Second derivative matrix not updated -- analytic derivatives used.
 ITU=  0
     Eigenvalues ---   -0.00085   0.05437   0.05651   0.07373   0.13124
     Eigenvalues ---    0.15456   0.16281   0.25363   0.27279   0.35600
     Eigenvalues ---    0.36387   0.36705   0.39619   0.69733   0.93587
 Eigenvalue     1 is  -8.51D-04 should be greater than     0.000000 Eigenvector:
                          D1        D4        D3        D2        D6
   1                    0.42739   0.42719   0.39800   0.39796   0.39780
                          D5        A7        A8        A2        A3
   1                    0.39776  -0.01904   0.01903  -0.01556   0.01555
 Angle between quadratic step and forces=  66.33 degrees.
 Linear search not attempted -- first point.
 Iteration  1 RMS(Cart)=  0.00066328 RMS(Int)=  0.00000020
 Iteration  2 RMS(Cart)=  0.00000019 RMS(Int)=  0.00000005
 Variable       Old X    -DE/DX   Delta X   Delta X   Delta X     New X
                                 (Linear)    (Quad)   (Total)
    R1        2.28184  -0.00004   0.00000  -0.00005  -0.00005   2.28179
    R2        2.28185  -0.00004   0.00000  -0.00004  -0.00004   2.28181
    R3        2.81074   0.00021   0.00000   0.00057   0.00057   2.81132
    R4        2.07137   0.00011   0.00000   0.00033   0.00033   2.07169
    R5        2.06347   0.00009   0.00000   0.00026   0.00026   2.06373
    R6        2.06350   0.00010   0.00000   0.00027   0.00027   2.06377
    A1        2.17795  -0.00014   0.00000  -0.00030  -0.00030   2.17765
    A2        2.05243   0.00007   0.00000   0.00019   0.00019   2.05262
    A3        2.05225   0.00007   0.00000   0.00010   0.00010   2.05235
    A4        1.85667   0.00000   0.00000  -0.00010  -0.00010   1.85657
    A5        1.88123   0.00008   0.00000   0.00052   0.00052   1.88175
    A6        1.88106   0.00008   0.00000   0.00044   0.00043   1.88150
    A7        1.93357  -0.00004   0.00000  -0.00017  -0.00017   1.93341
    A8        1.93339  -0.00004   0.00000  -0.00028  -0.00028   1.93311
    A9        1.97260  -0.00007   0.00000  -0.00035  -0.00035   1.97226
    D1       -1.55613   0.00001   0.00000  -0.00093  -0.00093  -1.55706
    D2        0.51845   0.00000   0.00000  -0.00091  -0.00091   0.51754
    D3        2.65277   0.00002   0.00000  -0.00077  -0.00077   2.65200
    D4        1.55126  -0.00001   0.00000  -0.00127  -0.00127   1.54999
    D5       -2.65734  -0.00002   0.00000  -0.00125  -0.00125  -2.65859
    D6       -0.52302   0.00000   0.00000  -0.00112  -0.00112  -0.52414
         Item               Value     Threshold  Converged?
 Maximum Force            0.000215     0.000450     YES
 RMS     Force            0.000080     0.000300     YES
 Maximum Displacement     0.001512     0.001800     YES
 RMS     Displacement     0.000663     0.001200     YES
 Predicted change in Energy=-2.149056D-07
 Optimization completed.
    -- Stationary point found.
                           ----------------------------
                           !   Optimized Parameters   !
                           ! (Angstroms and Degrees)  !
 --------------------------                            --------------------------
 ! Name  Definition              Value          Derivative Info.                !
 --------------------------------------------------------------------------------
 ! R1    R(1,2)                  1.2075         -DE/DX =    0.0                 !
 ! R2    R(1,3)                  1.2075         -DE/DX =    0.0                 !
 ! R3    R(1,4)                  1.4874         -DE/DX =    0.0002              !
 ! R4    R(4,5)                  1.0961         -DE/DX =    0.0001              !
 ! R5    R(4,6)                  1.0919         -DE/DX =    0.0001              !
 ! R6    R(4,7)                  1.092          -DE/DX =    0.0001              !
 ! A1    A(2,1,3)              124.7872         -DE/DX =   -0.0001              !
 ! A2    A(2,1,4)              117.5955         -DE/DX =    0.0001              !
 ! A3    A(3,1,4)              117.5853         -DE/DX =    0.0001              !
 ! A4    A(1,4,5)              106.3794         -DE/DX =    0.0                 !
 ! A5    A(1,4,6)              107.7866         -DE/DX =    0.0001              !
 ! A6    A(1,4,7)              107.777          -DE/DX =    0.0001              !
 ! A7    A(5,4,6)              110.7857         -DE/DX =    0.0                 !
 ! A8    A(5,4,7)              110.7751         -DE/DX =    0.0                 !
 ! A9    A(6,4,7)              113.0219         -DE/DX =   -0.0001              !
 ! D1    D(2,1,4,5)            -89.16           -DE/DX =    0.0                 !
 ! D2    D(2,1,4,6)             29.7049         -DE/DX =    0.0                 !
 ! D3    D(2,1,4,7)            151.9924         -DE/DX =    0.0                 !
 ! D4    D(3,1,4,5)             88.8809         -DE/DX =    0.0                 !
 ! D5    D(3,1,4,6)           -152.2542         -DE/DX =    0.0                 !
 ! D6    D(3,1,4,7)            -29.9668         -DE/DX =    0.0                 !
 --------------------------------------------------------------------------------
 GradGradGradGradGradGradGradGradGradGradGradGradGradGradGradGradGradGrad

 1\1\GINC-DC2S6B1A\Freq\RM062X\def2SVP\C1H3N1O2\CHMBNN\28-Jul-2021\0\\#
 N Geom=AllCheck Guess=TCheck SCRF=Check GenChk RM062X/def2SVP Freq\\Me
 NO2 opt\\0,1\N,0.1684757254,0.0000081943,-0.0118138272\O,0.7281087308,
 1.0698910936,0.0026936336\O,0.7275589973,-1.0701670917,0.0029806369\C,
 -1.3188748023,0.0002615829,-0.0021211757\H,-1.6211183111,-0.0021083608
 ,1.0515022854\H,-1.6555277857,0.9120420354,-0.4997729647\H,-1.65569355
 44,-0.9093054538,-0.5037275883\\Version=ES64L-G09RevD.01\State=1-A\HF=
 -244.7217974\RMSD=2.908e-09\RMSF=5.884e-05\ZeroPoint=0.0506421\Thermal
 =0.0552366\Dipole=-1.6877091,0.00026,0.0238794\DipoleDeriv=1.3857378,0
 .0002535,-0.0142964,0.0002962,2.3649389,-0.0002851,-0.0320411,-0.00025
 94,0.3175331,-0.7967726,-0.5176665,-0.0039894,-0.0888602,-1.351969,0.0
 04282,-0.0010637,-0.0145584,-0.3295268,-0.796658,0.5173519,-0.0041,0.0
 886607,-1.3524017,-0.0040287,-0.0010679,0.0148482,-0.3297983,0.0267688
 ,-0.0001799,0.0311069,-0.0005421,0.0794569,0.0000104,0.1170358,-0.0000
 588,0.0692599,0.0659101,0.0002137,-0.0500266,0.00011,0.1469676,0.00036
 92,-0.0170534,0.0001918,0.0408814,0.0574303,-0.051798,0.0205866,0.0075
 876,0.0563406,0.0493678,-0.0328653,0.0418263,0.1159587,0.0575835,0.051
 8253,0.0207189,-0.0072522,0.0566667,-0.0497157,-0.0329445,-0.0419898,0
 .1156921\Polar=28.1959107,0.0056858,39.0917252,-0.1519934,-0.0031184,1
 8.8696643\PG=C01 [X(C1H3N1O2)]\NImag=1\\0.78967358,0.00009826,1.119486
 56,0.00795217,-0.00011956,0.27172227,-0.29011153,-0.22476451,-0.005854
 90,0.27074292,-0.24006381,-0.51050351,-0.00531276,0.27129955,0.6656763
 6,-0.00591263,-0.00564065,-0.08257026,0.00665948,0.00611656,0.02754389
 ,-0.28979585,0.22465634,-0.00590920,0.05768159,-0.00888818,0.00126712,
 0.27040014,0.23994424,-0.51071684,0.00543236,0.00877041,-0.14732001,0.
 00009769,-0.27109616,0.66593051,-0.00597308,0.00575963,-0.08259633,0.0
 0126592,-0.00005024,0.02880306,0.00672629,-0.00629241,0.02756272,-0.17
 018161,0.00001493,0.00053931,-0.02975791,-0.02027373,-0.00114458,-0.02
 973772,0.02029836,-0.00115051,0.43625749,0.00006134,-0.09158078,-0.000
 00481,-0.05069954,-0.01130357,0.00224333,0.05073140,-0.01133377,-0.002
 23290,-0.00006142,0.68001471,-0.00305696,-0.00000476,-0.11115465,-0.00
 334317,0.00056196,0.02537901,-0.00335347,-0.00055130,0.02534620,0.0182
 7047,-0.00001555,0.60285804,-0.01585235,-0.00008055,0.04193457,-0.0011
 4931,0.00014699,-0.00476336,-0.00112000,-0.00015235,-0.00476278,-0.064
 11543,-0.00013798,0.06942215,0.07369138,-0.00000973,-0.00241171,-0.000
 00566,-0.00146766,-0.00022938,-0.00118006,0.00146596,-0.00023584,0.001
 17270,-0.00015044,-0.04430946,0.00063551,0.00018871,0.04075091,-0.0002
 6731,0.00000131,0.00561216,-0.00039304,-0.00096146,-0.00035810,-0.0003
 9054,0.00094885,-0.00034427,0.07543350,0.00063220,-0.31993211,-0.08106
 302,-0.00066782,0.33216275,-0.01185057,0.03197298,-0.01925290,0.001535
 93,-0.00055941,0.00193406,-0.00896511,0.00167645,0.00194158,-0.0712143
 7,0.06297027,-0.03881770,0.00427551,-0.00878335,0.00331834,0.08146544,
 -0.00219062,-0.00213373,-0.00317721,-0.00245864,0.00145232,-0.00063291
 ,0.00067028,0.00223253,0.00100585,0.07696837,-0.26125048,0.11638829,-0
 .00138858,0.00318027,-0.00282753,-0.07942258,0.26832545,0.00362337,-0.
 00235942,-0.00053472,-0.00008275,-0.00087281,0.00026212,0.00174040,-0.
 00051164,0.00096765,-0.04580307,0.11526588,-0.11076352,-0.01038660,0.0
 2331240,-0.00851537,0.04429702,-0.12274973,0.10959958,-0.01188167,-0.0
 3189745,-0.01940906,-0.00894170,-0.00166142,0.00195991,0.00153695,0.00
 055904,0.00195259,-0.07125044,-0.06286407,-0.03912133,0.00427021,0.008
 75652,0.00336207,0.00475318,0.00782178,0.00661164,0.08151347,0.0021603
 2,-0.00213999,0.00318764,-0.00067960,0.00222780,-0.00100398,0.00246035
 ,0.00144341,0.00063737,-0.07679608,-0.26023665,-0.11701414,0.00142375,
 0.00325522,0.00287446,-0.00785436,-0.01180636,-0.01208468,0.07928561,0
 .26725657,0.00363445,0.00236346,-0.00047847,0.00174846,0.00051874,0.00
 094027,-0.00008060,0.00087644,0.00026097,-0.04614511,-0.11588815,-0.11
 173298,-0.01038096,-0.02326707,-0.00862507,0.00657959,0.01199324,0.008
 98426,0.04464417,0.12340333,0.11065104\\-0.00007977,-0.00000175,0.0000
 0144,-0.00006808,0.00007606,-0.00003958,-0.00006744,-0.00007540,-0.000
 03964,-0.00001644,-0.00000185,0.00005977,0.00006503,0.00000338,-0.0000
 8861,0.00008369,-0.00005945,0.00005159,0.00008301,0.00005900,0.0000550
 3\\\@


 ... IT CAN BE VERY DIFFICULT, IN THESE COMPLEX TIMES,
 TO UNDERSTAND JUST HOW SCIENTISTS DO WHAT THEY DO.

                     DON MOSER IN THE FEBRUARY 1979 SMITHSONIAN
 Job cpu time:       0 days  0 hours  1 minutes  9.6 seconds.
 File lengths (MBytes):  RWF=     14 Int=      0 D2E=      0 Chk=      4 Scr=      1
 Normal termination of Gaussian 09 at Wed Jul 28 21:25:50 2021.
