 Entering Gaussian System, Link 0=g09
 Input=freq_TS_claisen_PM6_toluene_water.com
 Output=freq_TS_claisen_PM6_toluene_water.log
 Initial command:
 /apps/applications/gaussian/G09.D01/2/default/g09/l1.exe "/local/707349.1.40core-192G.q/Gau-257979.inp" -scrdir="/local/707349.1.40core-192G.q/"
 Entering Link 1 = /apps/applications/gaussian/G09.D01/2/default/g09/l1.exe PID=    257980.
  
 Copyright (c) 1988,1990,1992,1993,1995,1998,2003,2009,2013,
            Gaussian, Inc.  All Rights Reserved.
  
 This is part of the Gaussian(R) 09 program.  It is based on
 the Gaussian(R) 03 system (copyright 2003, Gaussian, Inc.),
 the Gaussian(R) 98 system (copyright 1998, Gaussian, Inc.),
 the Gaussian(R) 94 system (copyright 1995, Gaussian, Inc.),
 the Gaussian 92(TM) system (copyright 1992, Gaussian, Inc.),
 the Gaussian 90(TM) system (copyright 1990, Gaussian, Inc.),
 the Gaussian 88(TM) system (copyright 1988, Gaussian, Inc.),
 the Gaussian 86(TM) system (copyright 1986, Carnegie Mellon
 University), and the Gaussian 82(TM) system (copyright 1983,
 Carnegie Mellon University). Gaussian is a federally registered
 trademark of Gaussian, Inc.
  
 This software contains proprietary and confidential information,
 including trade secrets, belonging to Gaussian, Inc.
  
 This software is provided under written license and may be
 used, copied, transmitted, or stored only in accord with that
 written license.
  
 The following legend is applicable only to US Government
 contracts under FAR:
  
                    RESTRICTED RIGHTS LEGEND
  
 Use, reproduction and disclosure by the US Government is
 subject to restrictions as set forth in subparagraphs (a)
 and (c) of the Commercial Computer Software - Restricted
 Rights clause in FAR 52.227-19.
  
 Gaussian, Inc.
 340 Quinnipiac St., Bldg. 40, Wallingford CT 06492
  
  
 ---------------------------------------------------------------
 Warning -- This program may not be used in any manner that
 competes with the business of Gaussian, Inc. or will provide
 assistance to any competitor of Gaussian, Inc.  The licensee
 of this program is prohibited from giving any competitor of
 Gaussian, Inc. access to this program.  By using this program,
 the user acknowledges that Gaussian, Inc. is engaged in the
 business of creating and licensing software in the field of
 computational chemistry and represents and warrants to the
 licensee that it is not a competitor of Gaussian, Inc. and that
 it will not use this program in any manner prohibited above.
 ---------------------------------------------------------------
  

 Cite this work as:
 Gaussian 09, Revision D.01,
 M. J. Frisch, G. W. Trucks, H. B. Schlegel, G. E. Scuseria, 
 M. A. Robb, J. R. Cheeseman, G. Scalmani, V. Barone, B. Mennucci, 
 G. A. Petersson, H. Nakatsuji, M. Caricato, X. Li, H. P. Hratchian, 
 A. F. Izmaylov, J. Bloino, G. Zheng, J. L. Sonnenberg, M. Hada, 
 M. Ehara, K. Toyota, R. Fukuda, J. Hasegawa, M. Ishida, T. Nakajima, 
 Y. Honda, O. Kitao, H. Nakai, T. Vreven, J. A. Montgomery, Jr., 
 J. E. Peralta, F. Ogliaro, M. Bearpark, J. J. Heyd, E. Brothers, 
 K. N. Kudin, V. N. Staroverov, T. Keith, R. Kobayashi, J. Normand, 
 K. Raghavachari, A. Rendell, J. C. Burant, S. S. Iyengar, J. Tomasi, 
 M. Cossi, N. Rega, J. M. Millam, M. Klene, J. E. Knox, J. B. Cross, 
 V. Bakken, C. Adamo, J. Jaramillo, R. Gomperts, R. E. Stratmann, 
 O. Yazyev, A. J. Austin, R. Cammi, C. Pomelli, J. W. Ochterski, 
 R. L. Martin, K. Morokuma, V. G. Zakrzewski, G. A. Voth, 
 P. Salvador, J. J. Dannenberg, S. Dapprich, A. D. Daniels, 
 O. Farkas, J. B. Foresman, J. V. Ortiz, J. Cioslowski, 
 and D. J. Fox, Gaussian, Inc., Wallingford CT, 2013.
 
 ******************************************
 Gaussian 09:  ES64L-G09RevD.01 24-Apr-2013
                20-Aug-2020 
 ******************************************
 %nprocshared=4
 Will use up to    4 processors via shared memory.
 %chk=freq_TS_claisen_PM6_toluene_water.chk
 ----------------------------------------------------------------------
 # freq pm6 scrf=(cpcm,solvent=water) geom=connectivity empiricaldisper
 sion=gd3
 ----------------------------------------------------------------------
 1/10=4,30=1,38=1,57=2/1,3;
 2/12=2,17=6,18=5,40=1/2;
 3/5=2,16=1,25=1,41=3900000,70=2101,71=2,72=1,124=31,140=1/1,2,3;
 4/35=1/1;
 5/5=2,35=1,38=5,53=1,98=1/2;
 8/6=4,10=90,11=11/1;
 11/6=1,8=1,9=11,15=111,16=1/1,2,10;
 10/6=1/2;
 6/7=2,8=2,9=2,10=2,18=1,28=1/1;
 7/8=1,10=1,25=1/1,2,3,16;
 1/10=4,30=1/3;
 99//99;
 -------------------
 Title Card Required
 -------------------
 Symbolic Z-matrix:
 Charge =  0 Multiplicity = 1
 C                    -2.41287   2.64448   0.28418 
 C                    -2.68476   1.28675   0.26074 
 C                    -1.67398   0.3632   -0.10305 
 C                    -0.38831   0.84705  -0.43886 
 C                    -0.13342   2.23817  -0.41487 
 C                    -1.13061   3.12689  -0.05542 
 H                    -3.19246   3.35495   0.5658 
 H                    -3.6826    0.93532   0.52347 
 H                     0.867     2.58934  -0.68131 
 H                    -0.93649   4.19911  -0.03117 
 C                     0.67639  -0.09269  -0.82721 
 C                    -1.89174  -1.06783  -0.15615 
 C                     0.40688  -1.49381  -0.82598 
 H                     1.02885  -2.14563  -1.44679 
 C                    -0.92961  -1.94927  -0.53379 
 H                    -1.1262   -3.02221  -0.60283 
 O                     1.86301   0.3437   -1.03529 
 Cl                   -3.45628  -1.67001   0.27254 
 C                     3.06734  -0.09904   0.37888 
 C                     2.75182  -1.4775    0.4416 
 H                     3.43046  -2.17207  -0.05728 
 C                     4.31292   0.33375  -0.32841 
 H                     4.70759  -0.42483  -1.01743 
 H                     4.13078   1.23878  -0.93135 
 H                     5.11815   0.58199   0.37969 
 C                     2.54075   0.86679   1.39541 
 H                     1.50942   0.654     1.71072 
 H                     3.16133   0.84267   2.30583 
 H                     2.54856   1.90482   1.03155 
 C                     1.50755  -1.94405   0.84283 
 H                     1.30123  -3.01344   0.85188 
 H                     0.87688  -1.37979   1.52894 
 

 GradGradGradGradGradGradGradGradGradGradGradGradGradGradGradGradGradGrad
 Berny optimization.
 Initialization pass.
 Trust Radius=3.00D-01 FncErr=1.00D-07 GrdErr=1.00D-07
 Number of steps in this run=      2 maximum allowed number of steps=      2.
 GradGradGradGradGradGradGradGradGradGradGradGradGradGradGradGradGradGrad

                          Input orientation:                          
 ---------------------------------------------------------------------
 Center     Atomic      Atomic             Coordinates (Angstroms)
 Number     Number       Type             X           Y           Z
 ---------------------------------------------------------------------
      1          6           0       -2.412871    2.644484    0.284176
      2          6           0       -2.684755    1.286754    0.260738
      3          6           0       -1.673984    0.363203   -0.103049
      4          6           0       -0.388309    0.847051   -0.438860
      5          6           0       -0.133420    2.238167   -0.414866
      6          6           0       -1.130614    3.126893   -0.055417
      7          1           0       -3.192463    3.354947    0.565800
      8          1           0       -3.682599    0.935321    0.523473
      9          1           0        0.866999    2.589341   -0.681314
     10          1           0       -0.936486    4.199115   -0.031172
     11          6           0        0.676394   -0.092689   -0.827210
     12          6           0       -1.891739   -1.067829   -0.156147
     13          6           0        0.406881   -1.493811   -0.825979
     14          1           0        1.028845   -2.145626   -1.446789
     15          6           0       -0.929611   -1.949267   -0.533786
     16          1           0       -1.126198   -3.022205   -0.602826
     17          8           0        1.863009    0.343698   -1.035294
     18         17           0       -3.456275   -1.670006    0.272541
     19          6           0        3.067336   -0.099035    0.378881
     20          6           0        2.751818   -1.477501    0.441603
     21          1           0        3.430457   -2.172066   -0.057276
     22          6           0        4.312920    0.333747   -0.328410
     23          1           0        4.707593   -0.424825   -1.017432
     24          1           0        4.130783    1.238783   -0.931353
     25          1           0        5.118147    0.581992    0.379686
     26          6           0        2.540754    0.866790    1.395405
     27          1           0        1.509418    0.654001    1.710720
     28          1           0        3.161333    0.842673    2.305826
     29          1           0        2.548562    1.904823    1.031549
     30          6           0        1.507552   -1.944046    0.842831
     31          1           0        1.301225   -3.013444    0.851875
     32          1           0        0.876879   -1.379791    1.528943
 ---------------------------------------------------------------------
                    Distance matrix (angstroms):
                    1          2          3          4          5
     1  C    0.000000
     2  C    1.384883   0.000000
     3  C    2.429020   1.416667   0.000000
     4  C    2.802213   2.440582   1.414156   0.000000
     5  C    2.418605   2.805519   2.446642   1.414478   0.000000
     6  C    1.411462   2.429284   2.817002   2.428111   1.383269
     7  H    1.091711   2.151337   3.421063   3.893862   3.400977
     8  H    2.142594   1.090058   2.180455   3.433107   3.895454
     9  H    3.419468   3.898609   3.427342   2.161055   1.093232
    10  H    2.167034   3.409326   3.906826   3.420971   2.153475
    11  C    4.274442   3.792600   2.501304   1.472250   2.501743
    12  C    3.774484   2.519271   1.448478   2.450917   3.753429
    13  C    5.129223   4.297756   2.881168   2.502364   3.793231
    14  H    6.147097   5.337388   3.924939   3.461266   4.651168
    15  C    4.896087   3.766116   2.467214   2.849809   4.264114
    16  H    5.878236   4.662829   3.465665   3.942399   5.356533
    17  O    5.031676   4.821951   3.657838   2.382757   2.821289
    18  Cl   4.438880   3.055783   2.729756   4.031635   5.175684
    19  C    6.129318   5.917848   4.788114   3.674951   4.041953
    20  C    6.609808   6.101651   4.824164   4.004891   4.781666
    21  H    7.580252   7.032808   5.699562   4.882996   5.681483
    22  C    7.137999   7.086803   5.991216   4.730458   4.837792
    23  H    7.862306   7.694805   6.494737   5.283998   5.557879
    24  H    6.802420   6.919172   5.928579   4.562696   4.410097
    25  H    7.808920   7.835567   6.812778   5.573269   5.563559
    26  C    5.378980   5.363747   4.501442   3.456057   3.508413
    27  H    4.624003   4.482623   3.675373   2.873905   3.118752
    28  H    6.197204   6.209375   5.423362   4.487012   4.494993
    29  H    5.071635   5.325764   4.636141   3.450536   3.065332
    30  C    6.061058   5.324691   4.042309   3.609327   4.665351
    31  H    6.791829   5.893147   4.600597   4.407260   5.589477
    32  H    5.344781   4.626450   3.494042   3.229826   4.229506
                    6          7          8          9         10
     6  C    0.000000
     7  H    2.165442   0.000000
     8  H    3.413316   2.469132   0.000000
     9  H    2.161288   4.315168   4.988601   0.000000
    10  H    1.089924   2.481618   4.301293   2.503321   0.000000
    11  C    3.771823   5.366072   4.677817   2.692750   4.653455
    12  C    4.264405   4.666266   2.771583   4.611001   5.354328
    13  C    4.930371   6.196998   4.944244   4.111541   5.903030
    14  H    5.865035   7.219852   5.964216   4.799173   6.791335
    15  C    5.102611   5.870628   4.125238   4.883496   6.168895
    16  H    6.173417   6.804646   4.844146   5.955539   7.246395
    17  O    4.203345   6.098272   5.790815   2.481985   4.869258
    18  Cl   5.341020   5.040412   2.627150   6.143499   6.394385
    19  C    5.312063   7.151924   6.830258   3.632198   5.888364
    20  C    6.043240   7.661753   6.872418   4.620897   6.786094
    21  H    6.991591   8.648651   7.783874   5.443504   7.724171
    22  C    6.124398   8.139904   8.063245   4.133596   6.525771
    23  H    6.901075   8.899673   8.638270   4.893704   7.362687
    24  H    5.658138   7.768497   7.953461   3.541019   5.937264
    25  H    6.761128   8.762999   8.809009   4.819484   7.064769
    26  C    4.548834   6.304677   6.284511   3.175122   5.023018
    27  H    4.025445   5.541988   5.333455   3.143258   4.645909
    28  H    5.404992   7.050527   7.072819   4.151846   5.789593
    29  H    4.026324   5.939625   6.326566   2.496021   4.305660
    30  C    5.786293   7.088456   5.943939   4.825445   6.669005
    31  H    6.666390   7.799453   6.367032   5.824982   7.603166
    32  H    5.181740   6.317035   5.211483   4.543054   6.070127
                   11         12         13         14         15
    11  C    0.000000
    12  C    2.827814   0.000000
    13  C    1.426808   2.431828   0.000000
    14  H    2.173166   3.370047   1.094124   0.000000
    15  C    2.472293   1.358394   1.441883   2.169719   0.000000
    16  H    3.446991   2.145964   2.176262   2.474848   1.092982
    17  O    1.281323   4.106512   2.353840   2.657422   3.648003
    18  Cl   4.558106   1.730365   4.020170   4.826864   2.666867
    19  C    2.677928   5.081067   3.236527   3.417170   4.497989
    20  C    2.799103   4.699761   2.665663   2.642168   3.837560
    21  H    3.535742   5.436440   3.192639   2.774741   4.391685
    22  C    3.695263   6.363323   4.341046   4.264178   5.721754
    23  H    4.049329   6.686288   4.435708   4.083955   5.859685
    24  H    3.703575   6.495550   4.620132   4.619731   5.994106
    25  H    4.651985   7.221325   5.287591   5.243882   6.619447
    26  C    3.055561   5.079080   3.880773   4.408921   4.867791
    27  H    2.773547   4.244733   3.501932   4.247202   4.214697
    28  H    4.106792   5.936739   4.780624   5.249720   5.709128
    29  H    3.309086   5.473898   4.425824   4.985763   5.422358
    30  C    2.628190   3.649780   2.049174   2.347798   2.799083
    31  H    3.426449   3.872537   2.433995   2.472075   2.833577
    32  H    2.692263   3.256086   2.404071   3.076455   2.800457
                   16         17         18         19         20
    16  H    0.000000
    17  O    4.522354   0.000000
    18  Cl   2.832661   5.836113   0.000000
    19  C    5.205228   1.909531   6.710943   0.000000
    20  C    4.303016   2.507583   6.213377   1.415505   0.000000
    21  H    4.667276   3.121295   6.912881   2.149313   1.091720
    22  C    6.397009   2.549872   8.045903   1.496342   2.512087
    23  H    6.399328   2.946626   8.358424   2.178594   2.657436
    24  H    6.774939   2.440242   8.214248   2.153460   3.341370
    25  H    7.276497   3.557369   8.865872   2.160931   3.137652
    26  C    5.706465   2.577064   6.607610   1.497808   2.539682
    27  H    5.080695   2.786020   5.668110   2.183567   2.774440
    28  H    6.463781   3.619075   7.364818   2.146804   3.004370
    29  H    6.360082   2.679353   7.029478   2.170380   3.439399
    30  C    3.192020   2.981187   5.003989   2.460130   1.388109
    31  H    2.829950   3.891967   4.977375   3.440443   2.152130
    32  H    3.354740   3.243174   4.520951   2.785872   2.169620
                   21         22         23         24         25
    21  H    0.000000
    22  C    2.670459   0.000000
    23  H    2.367663   1.098157   0.000000
    24  H    3.590036   1.102635   1.762870   0.000000
    25  H    3.259458   1.100643   1.770360   1.767791   0.000000
    26  C    3.483748   2.529080   3.490737   2.842600   2.784915
    27  H    3.847448   3.481413   4.339931   3.767502   3.847046
    28  H    3.839965   2.919650   3.878339   3.402362   2.758096
    29  H    4.310951   2.725936   3.779815   2.607684   2.962697
    30  C    2.135357   3.798715   4.001109   4.489930   4.430775
    31  H    2.463352   4.654790   4.668897   5.409966   5.264885
    32  H    3.108786   4.265249   4.697910   4.847461   4.812249
                   26         27         28         29         30
    26  C    0.000000
    27  H    1.099253   0.000000
    28  H    1.102074   1.765948   0.000000
    29  H    1.099984   1.762285   1.768455   0.000000
    30  C    3.045266   2.739176   3.555439   3.991630   0.000000
    31  H    4.109510   3.772415   4.521461   5.077153   1.089158
    32  H    2.798828   2.137629   3.280491   3.718953   1.089441
                   31         32
    31  H    0.000000
    32  H    1.818602   0.000000
 Stoichiometry    C15H15ClO
 Framework group  C1[X(C15H15ClO)]
 Deg. of freedom    90
 Full point group                 C1      NOp   1
 Largest Abelian subgroup         C1      NOp   1
 Largest concise Abelian subgroup C1      NOp   1
                         Standard orientation:                         
 ---------------------------------------------------------------------
 Center     Atomic      Atomic             Coordinates (Angstroms)
 Number     Number       Type             X           Y           Z
 ---------------------------------------------------------------------
      1          6           0       -2.412871    2.644484    0.284176
      2          6           0       -2.684755    1.286754    0.260738
      3          6           0       -1.673984    0.363203   -0.103049
      4          6           0       -0.388309    0.847051   -0.438860
      5          6           0       -0.133420    2.238167   -0.414866
      6          6           0       -1.130614    3.126893   -0.055417
      7          1           0       -3.192463    3.354947    0.565800
      8          1           0       -3.682599    0.935321    0.523473
      9          1           0        0.866999    2.589341   -0.681314
     10          1           0       -0.936486    4.199115   -0.031172
     11          6           0        0.676394   -0.092689   -0.827210
     12          6           0       -1.891739   -1.067829   -0.156147
     13          6           0        0.406881   -1.493811   -0.825979
     14          1           0        1.028845   -2.145626   -1.446789
     15          6           0       -0.929611   -1.949267   -0.533786
     16          1           0       -1.126198   -3.022205   -0.602826
     17          8           0        1.863009    0.343698   -1.035294
     18         17           0       -3.456275   -1.670006    0.272541
     19          6           0        3.067336   -0.099035    0.378881
     20          6           0        2.751818   -1.477501    0.441603
     21          1           0        3.430457   -2.172066   -0.057276
     22          6           0        4.312920    0.333747   -0.328410
     23          1           0        4.707593   -0.424825   -1.017432
     24          1           0        4.130783    1.238783   -0.931353
     25          1           0        5.118147    0.581992    0.379686
     26          6           0        2.540754    0.866790    1.395405
     27          1           0        1.509418    0.654001    1.710720
     28          1           0        3.161333    0.842673    2.305826
     29          1           0        2.548562    1.904823    1.031549
     30          6           0        1.507552   -1.944046    0.842831
     31          1           0        1.301225   -3.013444    0.851875
     32          1           0        0.876879   -1.379791    1.528943
 ---------------------------------------------------------------------
 Rotational constants (GHZ):      0.6892755      0.3369490      0.2489132
 Standard basis: VSTO-6G (5D, 7F)
 There are    89 symmetry adapted cartesian basis functions of A   symmetry.
 There are    88 symmetry adapted basis functions of A   symmetry.
    88 basis functions,   534 primitive gaussians,    89 cartesian basis functions
    44 alpha electrons       44 beta electrons
       nuclear repulsion energy       657.4721793035 Hartrees.
 Integral buffers will be    131072 words long.
 Regular integral format.
 Two-electron integral symmetry is turned off.
 Nuclear repulsion after empirical dispersion term =      657.4605895413 Hartrees.
 Force inversion solution in PCM.
 ------------------------------------------------------------------------------
 Polarizable Continuum Model (PCM)
 =================================
 Model                : C-PCM.
 Atomic radii         : UFF (Universal Force Field).
 Polarization charges : Total charges.
 Charge compensation  : None.
 Solution method      : Matrix inversion.
 Cavity type          : Scaled VdW (van der Waals Surface) (Alpha=1.100).
 Cavity algorithm     : GePol (No added spheres)
                        Default sphere list used, NSphG=   32.
                        Lebedev-Laikov grids with approx.  5.0 points / Ang**2.
                        Smoothing algorithm: Karplus/York (Gamma=1.0000).
                        Polarization charges: spherical gaussians, with
                                              point-specific exponents (IZeta= 3).
                        Self-potential: point-specific (ISelfS= 7).
                        Self-field    : sphere-specific E.n sum rule (ISelfD= 2).
 1st derivatives      : Analytical E(r).r(x)/FMM algorithm (CHGder, D1EAlg=3).
                        Cavity 1st derivative terms included.
 2nd derivatives      : Analytical E(r).r(xy)/FMM algorithm (CHGder, D2EAlg=3).
                        Cavity 2nd derivative terms included.
 Solvent              : Water, Eps=  78.355300 Eps(inf)=   1.777849
 ------------------------------------------------------------------------------
 Do NDO integrals.
 One-electron integrals computed using PRISM.
 PrsmSu:  requested number of processors reduced to:   2 ShMem   1 Linda.
 NBasis=    88 RedAO= F EigKep=  0.00D+00  NBF=    88
 NBsUse=    88 1.00D-04 EigRej=  0.00D+00 NBFU=    88
 Nonelectrostatic core Hamiltonian diagonalized for initial guess.
 Overlap will be assumed to be unity.
 Keep J ints in memory in canonical form, NReq=9712104.
 Requested convergence on RMS density matrix=1.00D-08 within 128 cycles.
 Requested convergence on MAX density matrix=1.00D-06.
 Requested convergence on             energy=1.00D-06.
 No special actions if energy rises.
 Inv3:  Mode=1 IEnd=    15458700.
 Iteration    1 A*A^-1 deviation from unit magnitude is 6.22D-15 for   2266.
 Iteration    1 A*A^-1 deviation from orthogonality  is 1.98D-15 for   1756     85.
 Iteration    1 A^-1*A deviation from unit magnitude is 6.22D-15 for   2266.
 Iteration    1 A^-1*A deviation from orthogonality  is 1.86D-15 for   1369    884.
 Error on total polarization charges = -0.00007
 SCF Done:  E(RPM6D3) =  0.147095614877E-01 A.U. after   22 cycles
            NFock= 21  Conv=0.60D-08     -V/T= 1.0003
 Range of M.O.s used for correlation:     1    88
 NBasis=    88 NAE=    44 NBE=    44 NFC=     0 NFV=     0
 NROrb=     88 NOA=    44 NOB=    44 NVA=    44 NVB=    44
 PrsmSu:  requested number of processors reduced to:   1 ShMem   1 Linda.
 Symmetrizing basis deriv contribution to polar:
 IMax=3 JMax=2 DiffMx= 0.00D+00
 G2DrvN: will do    33 centers at a time, making    1 passes.
 Calling FoFCou, ICntrl=  3107 FMM=F I1Cent=   0 AccDes= 0.00D+00.
 NEqPCM:  Using equilibrium solvation (IEInf=0, Eps=  78.3553, EpsInf=   1.7778)
 G2PCM: DoFxE=T DoFxN=T DoGrad=T DoDP/DQ/DG/TGxP=FFFF NFrqRd=   0 IEInf=0 SqF1=F DoCFld=F IF1Alg=4.
 CoulSu:  requested number of processors reduced to:   3 ShMem   1 Linda.
 End of G2Drv F.D. properties file   721 does not exist.
 End of G2Drv F.D. properties file   722 does not exist.
 End of G2Drv F.D. properties file   788 does not exist.
          IDoAtm=11111111111111111111111111111111
 NEqPCM:  Using equilibrium solvation (IEInf=0, Eps=  78.3553, EpsInf=   1.7778)
          Differentiating once with respect to electric field.
                with respect to dipole field.
          Differentiating once with respect to nuclear coordinates.
          Electric field/nuclear overlap derivatives assumed to be zero.
 Keep J ints in memory in canonical form, NReq=13234554.
          There are    99 degrees of freedom in the 1st order CPHF.  IDoFFX=5 NUNeed=    99.
 LinEq1:  Iter=  0 NonCon=    99 RMS=2.35D-01 Max=5.72D+00 NDo=    99
 AX will form    99 AO Fock derivatives at one time.
 LinEq1:  Iter=  1 NonCon=    99 RMS=4.08D-02 Max=5.99D-01 NDo=    99
 LinEq1:  Iter=  2 NonCon=    99 RMS=9.80D-03 Max=1.50D-01 NDo=    99
 LinEq1:  Iter=  3 NonCon=    99 RMS=1.98D-03 Max=3.12D-02 NDo=    99
 LinEq1:  Iter=  4 NonCon=    99 RMS=4.71D-04 Max=5.12D-03 NDo=    99
 LinEq1:  Iter=  5 NonCon=    99 RMS=1.29D-04 Max=1.60D-03 NDo=    99
 LinEq1:  Iter=  6 NonCon=    99 RMS=3.23D-05 Max=5.31D-04 NDo=    99
 LinEq1:  Iter=  7 NonCon=    90 RMS=6.53D-06 Max=9.47D-05 NDo=    99
 LinEq1:  Iter=  8 NonCon=    47 RMS=1.42D-06 Max=2.19D-05 NDo=    99
 LinEq1:  Iter=  9 NonCon=     6 RMS=2.97D-07 Max=3.64D-06 NDo=    99
 LinEq1:  Iter= 10 NonCon=     3 RMS=5.19D-08 Max=5.71D-07 NDo=    99
 LinEq1:  Iter= 11 NonCon=     2 RMS=1.07D-08 Max=1.16D-07 NDo=    99
 LinEq1:  Iter= 12 NonCon=     0 RMS=2.46D-09 Max=3.46D-08 NDo=    99
 Linear equations converged to 1.000D-08 1.000D-07 after    12 iterations.
 Isotropic polarizability for W=    0.000000      216.61 Bohr**3.
 End of Minotr F.D. properties file   721 does not exist.
 End of Minotr F.D. properties file   722 does not exist.
 End of Minotr F.D. properties file   788 does not exist.

 **********************************************************************

            Population analysis using the SCF density.

 **********************************************************************

 Orbital symmetries:
       Occupied  (A) (A) (A) (A) (A) (A) (A) (A) (A) (A) (A) (A)
                 (A) (A) (A) (A) (A) (A) (A) (A) (A) (A) (A) (A)
                 (A) (A) (A) (A) (A) (A) (A) (A) (A) (A) (A) (A)
                 (A) (A) (A) (A) (A) (A) (A) (A)
       Virtual   (A) (A) (A) (A) (A) (A) (A) (A) (A) (A) (A) (A)
                 (A) (A) (A) (A) (A) (A) (A) (A) (A) (A) (A) (A)
                 (A) (A) (A) (A) (A) (A) (A) (A) (A) (A) (A) (A)
                 (A) (A) (A) (A) (A) (A) (A) (A)
 The electronic state is 1-A.
 Alpha  occ. eigenvalues --   -1.13407  -1.11032  -1.07700  -1.06539  -1.00352
 Alpha  occ. eigenvalues --   -0.98041  -0.96307  -0.94695  -0.91333  -0.89313
 Alpha  occ. eigenvalues --   -0.82181  -0.80987  -0.80093  -0.75674  -0.68912
 Alpha  occ. eigenvalues --   -0.66000  -0.65167  -0.62834  -0.60261  -0.59876
 Alpha  occ. eigenvalues --   -0.57250  -0.56890  -0.56323  -0.54392  -0.54161
 Alpha  occ. eigenvalues --   -0.53007  -0.52045  -0.50617  -0.50175  -0.49462
 Alpha  occ. eigenvalues --   -0.48889  -0.48467  -0.47269  -0.46589  -0.46461
 Alpha  occ. eigenvalues --   -0.45673  -0.44658  -0.42081  -0.41318  -0.39429
 Alpha  occ. eigenvalues --   -0.38541  -0.37528  -0.34478  -0.31546
 Alpha virt. eigenvalues --   -0.03190  -0.02340   0.00335   0.02184   0.02620
 Alpha virt. eigenvalues --    0.03795   0.07260   0.09497   0.12169   0.12806
 Alpha virt. eigenvalues --    0.13760   0.13919   0.14325   0.14992   0.15377
 Alpha virt. eigenvalues --    0.15978   0.16069   0.16701   0.17052   0.17600
 Alpha virt. eigenvalues --    0.18288   0.18717   0.18890   0.19423   0.19687
 Alpha virt. eigenvalues --    0.19960   0.20156   0.20316   0.20558   0.20793
 Alpha virt. eigenvalues --    0.20962   0.21054   0.21687   0.22027   0.22106
 Alpha virt. eigenvalues --    0.22246   0.22876   0.23934   0.24286   3.24349
 Alpha virt. eigenvalues --    3.24428   3.24587   3.25479   3.25529
          Condensed to atoms (all electrons):
               1          2          3          4          5          6
     1  C    4.083574   0.000000   0.000000   0.000000   0.000000   0.000000
     2  C    0.000000   4.217418   0.000000   0.000000   0.000000   0.000000
     3  C    0.000000   0.000000   3.912825   0.000000   0.000000   0.000000
     4  C    0.000000   0.000000   0.000000   4.187625   0.000000   0.000000
     5  C    0.000000   0.000000   0.000000   0.000000   4.071740   0.000000
     6  C    0.000000   0.000000   0.000000   0.000000   0.000000   4.200040
     7  H    0.000000   0.000000   0.000000   0.000000   0.000000   0.000000
     8  H    0.000000   0.000000   0.000000   0.000000   0.000000   0.000000
     9  H    0.000000   0.000000   0.000000   0.000000   0.000000   0.000000
    10  H    0.000000   0.000000   0.000000   0.000000   0.000000   0.000000
    11  C    0.000000   0.000000   0.000000   0.000000   0.000000   0.000000
    12  C    0.000000   0.000000   0.000000   0.000000   0.000000   0.000000
    13  C    0.000000   0.000000   0.000000   0.000000   0.000000   0.000000
    14  H    0.000000   0.000000   0.000000   0.000000   0.000000   0.000000
    15  C    0.000000   0.000000   0.000000   0.000000   0.000000   0.000000
    16  H    0.000000   0.000000   0.000000   0.000000   0.000000   0.000000
    17  O    0.000000   0.000000   0.000000   0.000000   0.000000   0.000000
    18  Cl   0.000000   0.000000   0.000000   0.000000   0.000000   0.000000
    19  C    0.000000   0.000000   0.000000   0.000000   0.000000   0.000000
    20  C    0.000000   0.000000   0.000000   0.000000   0.000000   0.000000
    21  H    0.000000   0.000000   0.000000   0.000000   0.000000   0.000000
    22  C    0.000000   0.000000   0.000000   0.000000   0.000000   0.000000
    23  H    0.000000   0.000000   0.000000   0.000000   0.000000   0.000000
    24  H    0.000000   0.000000   0.000000   0.000000   0.000000   0.000000
    25  H    0.000000   0.000000   0.000000   0.000000   0.000000   0.000000
    26  C    0.000000   0.000000   0.000000   0.000000   0.000000   0.000000
    27  H    0.000000   0.000000   0.000000   0.000000   0.000000   0.000000
    28  H    0.000000   0.000000   0.000000   0.000000   0.000000   0.000000
    29  H    0.000000   0.000000   0.000000   0.000000   0.000000   0.000000
    30  C    0.000000   0.000000   0.000000   0.000000   0.000000   0.000000
    31  H    0.000000   0.000000   0.000000   0.000000   0.000000   0.000000
    32  H    0.000000   0.000000   0.000000   0.000000   0.000000   0.000000
               7          8          9         10         11         12
     1  C    0.000000   0.000000   0.000000   0.000000   0.000000   0.000000
     2  C    0.000000   0.000000   0.000000   0.000000   0.000000   0.000000
     3  C    0.000000   0.000000   0.000000   0.000000   0.000000   0.000000
     4  C    0.000000   0.000000   0.000000   0.000000   0.000000   0.000000
     5  C    0.000000   0.000000   0.000000   0.000000   0.000000   0.000000
     6  C    0.000000   0.000000   0.000000   0.000000   0.000000   0.000000
     7  H    0.844760   0.000000   0.000000   0.000000   0.000000   0.000000
     8  H    0.000000   0.828932   0.000000   0.000000   0.000000   0.000000
     9  H    0.000000   0.000000   0.835798   0.000000   0.000000   0.000000
    10  H    0.000000   0.000000   0.000000   0.835877   0.000000   0.000000
    11  C    0.000000   0.000000   0.000000   0.000000   3.550535   0.000000
    12  C    0.000000   0.000000   0.000000   0.000000   0.000000   4.092670
    13  C    0.000000   0.000000   0.000000   0.000000   0.000000   0.000000
    14  H    0.000000   0.000000   0.000000   0.000000   0.000000   0.000000
    15  C    0.000000   0.000000   0.000000   0.000000   0.000000   0.000000
    16  H    0.000000   0.000000   0.000000   0.000000   0.000000   0.000000
    17  O    0.000000   0.000000   0.000000   0.000000   0.000000   0.000000
    18  Cl   0.000000   0.000000   0.000000   0.000000   0.000000   0.000000
    19  C    0.000000   0.000000   0.000000   0.000000   0.000000   0.000000
    20  C    0.000000   0.000000   0.000000   0.000000   0.000000   0.000000
    21  H    0.000000   0.000000   0.000000   0.000000   0.000000   0.000000
    22  C    0.000000   0.000000   0.000000   0.000000   0.000000   0.000000
    23  H    0.000000   0.000000   0.000000   0.000000   0.000000   0.000000
    24  H    0.000000   0.000000   0.000000   0.000000   0.000000   0.000000
    25  H    0.000000   0.000000   0.000000   0.000000   0.000000   0.000000
    26  C    0.000000   0.000000   0.000000   0.000000   0.000000   0.000000
    27  H    0.000000   0.000000   0.000000   0.000000   0.000000   0.000000
    28  H    0.000000   0.000000   0.000000   0.000000   0.000000   0.000000
    29  H    0.000000   0.000000   0.000000   0.000000   0.000000   0.000000
    30  C    0.000000   0.000000   0.000000   0.000000   0.000000   0.000000
    31  H    0.000000   0.000000   0.000000   0.000000   0.000000   0.000000
    32  H    0.000000   0.000000   0.000000   0.000000   0.000000   0.000000
              13         14         15         16         17         18
     1  C    0.000000   0.000000   0.000000   0.000000   0.000000   0.000000
     2  C    0.000000   0.000000   0.000000   0.000000   0.000000   0.000000
     3  C    0.000000   0.000000   0.000000   0.000000   0.000000   0.000000
     4  C    0.000000   0.000000   0.000000   0.000000   0.000000   0.000000
     5  C    0.000000   0.000000   0.000000   0.000000   0.000000   0.000000
     6  C    0.000000   0.000000   0.000000   0.000000   0.000000   0.000000
     7  H    0.000000   0.000000   0.000000   0.000000   0.000000   0.000000
     8  H    0.000000   0.000000   0.000000   0.000000   0.000000   0.000000
     9  H    0.000000   0.000000   0.000000   0.000000   0.000000   0.000000
    10  H    0.000000   0.000000   0.000000   0.000000   0.000000   0.000000
    11  C    0.000000   0.000000   0.000000   0.000000   0.000000   0.000000
    12  C    0.000000   0.000000   0.000000   0.000000   0.000000   0.000000
    13  C    4.391170   0.000000   0.000000   0.000000   0.000000   0.000000
    14  H    0.000000   0.807840   0.000000   0.000000   0.000000   0.000000
    15  C    0.000000   0.000000   4.064493   0.000000   0.000000   0.000000
    16  H    0.000000   0.000000   0.000000   0.832652   0.000000   0.000000
    17  O    0.000000   0.000000   0.000000   0.000000   6.611520   0.000000
    18  Cl   0.000000   0.000000   0.000000   0.000000   0.000000   7.107723
    19  C    0.000000   0.000000   0.000000   0.000000   0.000000   0.000000
    20  C    0.000000   0.000000   0.000000   0.000000   0.000000   0.000000
    21  H    0.000000   0.000000   0.000000   0.000000   0.000000   0.000000
    22  C    0.000000   0.000000   0.000000   0.000000   0.000000   0.000000
    23  H    0.000000   0.000000   0.000000   0.000000   0.000000   0.000000
    24  H    0.000000   0.000000   0.000000   0.000000   0.000000   0.000000
    25  H    0.000000   0.000000   0.000000   0.000000   0.000000   0.000000
    26  C    0.000000   0.000000   0.000000   0.000000   0.000000   0.000000
    27  H    0.000000   0.000000   0.000000   0.000000   0.000000   0.000000
    28  H    0.000000   0.000000   0.000000   0.000000   0.000000   0.000000
    29  H    0.000000   0.000000   0.000000   0.000000   0.000000   0.000000
    30  C    0.000000   0.000000   0.000000   0.000000   0.000000   0.000000
    31  H    0.000000   0.000000   0.000000   0.000000   0.000000   0.000000
    32  H    0.000000   0.000000   0.000000   0.000000   0.000000   0.000000
              19         20         21         22         23         24
     1  C    0.000000   0.000000   0.000000   0.000000   0.000000   0.000000
     2  C    0.000000   0.000000   0.000000   0.000000   0.000000   0.000000
     3  C    0.000000   0.000000   0.000000   0.000000   0.000000   0.000000
     4  C    0.000000   0.000000   0.000000   0.000000   0.000000   0.000000
     5  C    0.000000   0.000000   0.000000   0.000000   0.000000   0.000000
     6  C    0.000000   0.000000   0.000000   0.000000   0.000000   0.000000
     7  H    0.000000   0.000000   0.000000   0.000000   0.000000   0.000000
     8  H    0.000000   0.000000   0.000000   0.000000   0.000000   0.000000
     9  H    0.000000   0.000000   0.000000   0.000000   0.000000   0.000000
    10  H    0.000000   0.000000   0.000000   0.000000   0.000000   0.000000
    11  C    0.000000   0.000000   0.000000   0.000000   0.000000   0.000000
    12  C    0.000000   0.000000   0.000000   0.000000   0.000000   0.000000
    13  C    0.000000   0.000000   0.000000   0.000000   0.000000   0.000000
    14  H    0.000000   0.000000   0.000000   0.000000   0.000000   0.000000
    15  C    0.000000   0.000000   0.000000   0.000000   0.000000   0.000000
    16  H    0.000000   0.000000   0.000000   0.000000   0.000000   0.000000
    17  O    0.000000   0.000000   0.000000   0.000000   0.000000   0.000000
    18  Cl   0.000000   0.000000   0.000000   0.000000   0.000000   0.000000
    19  C    3.474906   0.000000   0.000000   0.000000   0.000000   0.000000
    20  C    0.000000   4.467666   0.000000   0.000000   0.000000   0.000000
    21  H    0.000000   0.000000   0.819117   0.000000   0.000000   0.000000
    22  C    0.000000   0.000000   0.000000   4.576434   0.000000   0.000000
    23  H    0.000000   0.000000   0.000000   0.000000   0.817989   0.000000
    24  H    0.000000   0.000000   0.000000   0.000000   0.000000   0.804068
    25  H    0.000000   0.000000   0.000000   0.000000   0.000000   0.000000
    26  C    0.000000   0.000000   0.000000   0.000000   0.000000   0.000000
    27  H    0.000000   0.000000   0.000000   0.000000   0.000000   0.000000
    28  H    0.000000   0.000000   0.000000   0.000000   0.000000   0.000000
    29  H    0.000000   0.000000   0.000000   0.000000   0.000000   0.000000
    30  C    0.000000   0.000000   0.000000   0.000000   0.000000   0.000000
    31  H    0.000000   0.000000   0.000000   0.000000   0.000000   0.000000
    32  H    0.000000   0.000000   0.000000   0.000000   0.000000   0.000000
              25         26         27         28         29         30
     1  C    0.000000   0.000000   0.000000   0.000000   0.000000   0.000000
     2  C    0.000000   0.000000   0.000000   0.000000   0.000000   0.000000
     3  C    0.000000   0.000000   0.000000   0.000000   0.000000   0.000000
     4  C    0.000000   0.000000   0.000000   0.000000   0.000000   0.000000
     5  C    0.000000   0.000000   0.000000   0.000000   0.000000   0.000000
     6  C    0.000000   0.000000   0.000000   0.000000   0.000000   0.000000
     7  H    0.000000   0.000000   0.000000   0.000000   0.000000   0.000000
     8  H    0.000000   0.000000   0.000000   0.000000   0.000000   0.000000
     9  H    0.000000   0.000000   0.000000   0.000000   0.000000   0.000000
    10  H    0.000000   0.000000   0.000000   0.000000   0.000000   0.000000
    11  C    0.000000   0.000000   0.000000   0.000000   0.000000   0.000000
    12  C    0.000000   0.000000   0.000000   0.000000   0.000000   0.000000
    13  C    0.000000   0.000000   0.000000   0.000000   0.000000   0.000000
    14  H    0.000000   0.000000   0.000000   0.000000   0.000000   0.000000
    15  C    0.000000   0.000000   0.000000   0.000000   0.000000   0.000000
    16  H    0.000000   0.000000   0.000000   0.000000   0.000000   0.000000
    17  O    0.000000   0.000000   0.000000   0.000000   0.000000   0.000000
    18  Cl   0.000000   0.000000   0.000000   0.000000   0.000000   0.000000
    19  C    0.000000   0.000000   0.000000   0.000000   0.000000   0.000000
    20  C    0.000000   0.000000   0.000000   0.000000   0.000000   0.000000
    21  H    0.000000   0.000000   0.000000   0.000000   0.000000   0.000000
    22  C    0.000000   0.000000   0.000000   0.000000   0.000000   0.000000
    23  H    0.000000   0.000000   0.000000   0.000000   0.000000   0.000000
    24  H    0.000000   0.000000   0.000000   0.000000   0.000000   0.000000
    25  H    0.809863   0.000000   0.000000   0.000000   0.000000   0.000000
    26  C    0.000000   4.580723   0.000000   0.000000   0.000000   0.000000
    27  H    0.000000   0.000000   0.814378   0.000000   0.000000   0.000000
    28  H    0.000000   0.000000   0.000000   0.809096   0.000000   0.000000
    29  H    0.000000   0.000000   0.000000   0.000000   0.809433   0.000000
    30  C    0.000000   0.000000   0.000000   0.000000   0.000000   4.022850
    31  H    0.000000   0.000000   0.000000   0.000000   0.000000   0.000000
    32  H    0.000000   0.000000   0.000000   0.000000   0.000000   0.000000
              31         32
     1  C    0.000000   0.000000
     2  C    0.000000   0.000000
     3  C    0.000000   0.000000
     4  C    0.000000   0.000000
     5  C    0.000000   0.000000
     6  C    0.000000   0.000000
     7  H    0.000000   0.000000
     8  H    0.000000   0.000000
     9  H    0.000000   0.000000
    10  H    0.000000   0.000000
    11  C    0.000000   0.000000
    12  C    0.000000   0.000000
    13  C    0.000000   0.000000
    14  H    0.000000   0.000000
    15  C    0.000000   0.000000
    16  H    0.000000   0.000000
    17  O    0.000000   0.000000
    18  Cl   0.000000   0.000000
    19  C    0.000000   0.000000
    20  C    0.000000   0.000000
    21  H    0.000000   0.000000
    22  C    0.000000   0.000000
    23  H    0.000000   0.000000
    24  H    0.000000   0.000000
    25  H    0.000000   0.000000
    26  C    0.000000   0.000000
    27  H    0.000000   0.000000
    28  H    0.000000   0.000000
    29  H    0.000000   0.000000
    30  C    0.000000   0.000000
    31  H    0.856034   0.000000
    32  H    0.000000   0.860251
 Mulliken charges:
               1
     1  C   -0.083574
     2  C   -0.217418
     3  C    0.087175
     4  C   -0.187625
     5  C   -0.071740
     6  C   -0.200040
     7  H    0.155240
     8  H    0.171068
     9  H    0.164202
    10  H    0.164123
    11  C    0.449465
    12  C   -0.092670
    13  C   -0.391170
    14  H    0.192160
    15  C   -0.064493
    16  H    0.167348
    17  O   -0.611520
    18  Cl  -0.107723
    19  C    0.525094
    20  C   -0.467666
    21  H    0.180883
    22  C   -0.576434
    23  H    0.182011
    24  H    0.195932
    25  H    0.190137
    26  C   -0.580723
    27  H    0.185622
    28  H    0.190904
    29  H    0.190567
    30  C   -0.022850
    31  H    0.143966
    32  H    0.139749
 Sum of Mulliken charges =   0.00000
 Mulliken charges with hydrogens summed into heavy atoms:
               1
     1  C    0.071666
     2  C   -0.046350
     3  C    0.087175
     4  C   -0.187625
     5  C    0.092463
     6  C   -0.035917
    11  C    0.449465
    12  C   -0.092670
    13  C   -0.199010
    15  C    0.102855
    17  O   -0.611520
    18  Cl  -0.107723
    19  C    0.525094
    20  C   -0.286783
    22  C   -0.008354
    26  C   -0.013631
    30  C    0.260865
 APT charges:
               1
     1  C   -0.000495
     2  C   -0.546846
     3  C    0.287437
     4  C   -0.311096
     5  C   -0.151965
     6  C   -0.349905
     7  H    0.242990
     8  H    0.266670
     9  H    0.231051
    10  H    0.260150
    11  C    0.908642
    12  C    0.157259
    13  C   -1.428186
    14  H    0.309621
    15  C    0.329983
    16  H    0.247748
    17  O   -0.895360
    18  Cl  -0.561882
    19  C    1.376664
    20  C   -1.385657
    21  H    0.295211
    22  C   -1.114720
    23  H    0.261496
    24  H    0.284027
    25  H    0.282781
    26  C   -0.972459
    27  H    0.228042
    28  H    0.279220
    29  H    0.274121
    30  C    0.957680
    31  H    0.167707
    32  H    0.069440
 Sum of APT charges =  -0.00063
 APT charges with hydrogens summed into heavy atoms:
               1
     1  C    0.242495
     2  C   -0.280175
     3  C    0.287437
     4  C   -0.311096
     5  C    0.079086
     6  C   -0.089755
    11  C    0.908642
    12  C    0.157259
    13  C   -1.118565
    15  C    0.577731
    17  O   -0.895360
    18  Cl  -0.561882
    19  C    1.376664
    20  C   -1.090447
    22  C   -0.286415
    26  C   -0.191077
    30  C    1.194828
 Charge=              0.0000 electrons
 Dipole moment (field-independent basis, Debye):
    X=              3.1039    Y=              0.5108    Z=              2.8202  Tot=              4.2247
 N-N= 6.574605895413D+02 E-N=-1.202188424418D+03  KE=-5.670392190612D+01
  Exact polarizability: 317.684 -13.556 248.841 -18.661   4.665  83.309
 Approx polarizability: 170.396   1.444 150.180 -17.495   1.428  51.779
 PrsmSu:  requested number of processors reduced to:   1 ShMem   1 Linda.
 D2PCM: C-PCM CHGder 2nd derivatives, FixD1E=F FixD2E=F DoIter=F DoCFld=F I1PDM=0
 Calling FoFJK, ICntrl=    100127 FMM=F ISym2X=0 I1Cent= 0 IOpClX= 0 NMat=1 NMatS=1 NMatT=0.
 CoulSu:  requested number of processors reduced to:   2 ShMem   1 Linda.
 Full mass-weighted force constant matrix:
 Low frequencies --- -710.6163   -7.1335   -0.2509   -0.1256    0.0500    7.4755
 Low frequencies ---    8.1105   45.3765   58.5176
 ******    1 imaginary frequencies (negative Signs) ****** 
 Diagonal vibrational polarizability:
      301.9639629      43.6835266     134.3458686
 Harmonic frequencies (cm**-1), IR intensities (KM/Mole), Raman scattering
 activities (A**4/AMU), depolarization ratios for plane and unpolarized
 incident light, reduced masses (AMU), force constants (mDyne/A),
 and normal coordinates:
                      1                      2                      3
                      A                      A                      A
 Frequencies --   -710.6162                45.3340                58.4941
 Red. masses --      9.9445                 4.4571                 4.1175
 Frc consts  --      2.9587                 0.0054                 0.0083
 IR Inten    --    760.8497                 0.3165                 2.9720
  Atom  AN      X      Y      Z        X      Y      Z        X      Y      Z
     1   6     0.01   0.02   0.00     0.02   0.02  -0.05     0.14  -0.02   0.19
     2   6     0.01  -0.02   0.00     0.03   0.02  -0.01     0.10  -0.02   0.16
     3   6    -0.01   0.03   0.01     0.02   0.02  -0.01     0.04  -0.03   0.02
     4   6    -0.03   0.03   0.00     0.01   0.01  -0.05     0.02  -0.04  -0.07
     5   6     0.00  -0.02  -0.01     0.01   0.02  -0.09     0.05  -0.05  -0.08
     6   6    -0.02   0.01   0.01     0.01   0.02  -0.10     0.10  -0.04   0.05
     7   1    -0.01  -0.01   0.00     0.02   0.03  -0.06     0.18  -0.02   0.31
     8   1     0.00   0.00   0.00     0.03   0.02   0.02     0.12  -0.01   0.26
     9   1    -0.01   0.00   0.00     0.00   0.01  -0.12     0.03  -0.06  -0.18
    10   1     0.00   0.01   0.00     0.00   0.02  -0.13     0.13  -0.04   0.06
    11   6     0.08   0.07  -0.04     0.01   0.01  -0.06     0.00  -0.06  -0.10
    12   6     0.02  -0.04  -0.01     0.02   0.02   0.01     0.01  -0.02  -0.02
    13   6     0.24  -0.16   0.40    -0.01   0.02  -0.12    -0.01  -0.05  -0.04
    14   1    -0.14   0.06  -0.26    -0.03   0.03  -0.15     0.01  -0.09   0.02
    15   6    -0.01  -0.02   0.06     0.00   0.02  -0.08    -0.02  -0.03  -0.04
    16   1    -0.01  -0.02   0.00    -0.02   0.02  -0.09    -0.04  -0.03  -0.05
    17   8    -0.20   0.04  -0.19     0.02   0.01  -0.02     0.00  -0.08  -0.12
    18  17     0.00   0.00   0.00     0.07   0.01   0.16    -0.01   0.01  -0.04
    19   6     0.22  -0.17   0.26    -0.06  -0.02   0.06    -0.07   0.07   0.03
    20   6     0.07   0.11  -0.04    -0.01  -0.04  -0.08    -0.05   0.07   0.09
    21   1    -0.10   0.00  -0.09     0.03   0.04  -0.13    -0.01   0.05   0.16
    22   6     0.04  -0.01   0.04    -0.03   0.11   0.19    -0.03   0.05   0.08
    23   1     0.01   0.02   0.00     0.06   0.18   0.15     0.08  -0.02   0.23
    24   1    -0.13  -0.04   0.06    -0.04   0.15   0.25    -0.04  -0.05  -0.07
    25   1     0.10   0.06  -0.06    -0.10   0.09   0.27    -0.11   0.21   0.12
    26   6     0.00   0.00   0.00    -0.19  -0.13   0.10    -0.16   0.13  -0.09
    27   1     0.00  -0.02  -0.05    -0.20  -0.20   0.00    -0.19   0.15  -0.16
    28   1    -0.05   0.09   0.04    -0.26  -0.18   0.15    -0.25   0.20  -0.03
    29   1     0.01  -0.05  -0.10    -0.21  -0.10   0.19    -0.14   0.11  -0.15
    30   6    -0.34   0.10  -0.39     0.01  -0.12  -0.15    -0.06   0.07   0.05
    31   1    -0.02   0.03  -0.09     0.04  -0.13  -0.26    -0.05   0.07   0.10
    32   1     0.07  -0.06   0.14    -0.03  -0.20  -0.11    -0.11   0.10  -0.02
                      4                      5                      6
                      A                      A                      A
 Frequencies --     77.7645                83.4670               106.5586
 Red. masses --      1.1010                 3.5797                 3.8645
 Frc consts  --      0.0039                 0.0147                 0.0259
 IR Inten    --      1.0678                 1.4960                 1.0959
  Atom  AN      X      Y      Z        X      Y      Z        X      Y      Z
     1   6     0.00   0.01  -0.01     0.05   0.02  -0.02    -0.02   0.00   0.08
     2   6    -0.01   0.01  -0.02     0.02   0.02   0.00     0.05  -0.02   0.24
     3   6    -0.01   0.00   0.00     0.00  -0.01   0.03     0.02   0.01   0.12
     4   6     0.00   0.00   0.01     0.01  -0.04   0.04    -0.02   0.03  -0.02
     5   6     0.01   0.00   0.02     0.04  -0.05   0.01    -0.10   0.05  -0.22
     6   6     0.01   0.00   0.01     0.06  -0.02  -0.02    -0.11   0.04  -0.21
     7   1     0.00   0.01  -0.03     0.06   0.04  -0.04     0.00  -0.02   0.16
     8   1    -0.01   0.01  -0.03     0.01   0.05   0.00     0.11  -0.04   0.46
     9   1     0.01  -0.01   0.03     0.06  -0.07   0.01    -0.15   0.07  -0.38
    10   1     0.01   0.00   0.01     0.09  -0.02  -0.04    -0.18   0.05  -0.40
    11   6     0.00  -0.01   0.01    -0.01  -0.06   0.05     0.00   0.04   0.03
    12   6    -0.01   0.00   0.01    -0.02  -0.01   0.06     0.02   0.01   0.06
    13   6    -0.01   0.00   0.01     0.00  -0.07   0.12     0.01   0.03   0.02
    14   1    -0.01  -0.01   0.01    -0.06  -0.08   0.07     0.01   0.05   0.01
    15   6    -0.01   0.00   0.02    -0.01  -0.04   0.15     0.01   0.02   0.01
    16   1    -0.01   0.00   0.03    -0.02  -0.04   0.21     0.01   0.03  -0.05
    17   8    -0.01  -0.01   0.00    -0.02  -0.06  -0.01     0.01   0.04   0.06
    18  17    -0.01   0.01  -0.01    -0.08   0.05  -0.08    -0.02   0.00  -0.09
    19   6     0.02   0.00   0.00    -0.02   0.05  -0.04     0.03  -0.05   0.02
    20   6     0.03  -0.01  -0.02     0.11   0.02  -0.08     0.02  -0.05  -0.01
    21   1     0.02   0.01  -0.04     0.13   0.10  -0.15     0.01  -0.04  -0.04
    22   6    -0.01   0.03  -0.01    -0.05   0.20  -0.03     0.02  -0.04   0.00
    23   1     0.30  -0.15   0.37    -0.15   0.37  -0.27     0.06  -0.07   0.05
    24   1    -0.21  -0.28  -0.44    -0.05   0.38   0.25    -0.01  -0.08  -0.05
    25   1    -0.17   0.60  -0.03     0.01  -0.05  -0.01     0.01   0.04  -0.01
    26   6     0.01  -0.02   0.02    -0.08  -0.04   0.02     0.05  -0.07   0.05
    27   1    -0.02   0.01  -0.05    -0.04  -0.17   0.05     0.11  -0.16   0.17
    28   1    -0.05  -0.10   0.05    -0.04  -0.01  -0.01     0.16   0.03  -0.02
    29   1     0.07  -0.01   0.07    -0.21  -0.03   0.06    -0.09  -0.08   0.01
    30   6     0.04  -0.02  -0.01     0.15  -0.09  -0.04     0.03  -0.04   0.00
    31   1     0.04  -0.02  -0.02     0.24  -0.10  -0.08     0.00  -0.03  -0.02
    32   1     0.04  -0.03   0.01     0.17  -0.17   0.05     0.04  -0.04   0.02
                      7                      8                      9
                      A                      A                      A
 Frequencies --    119.2514               168.3247               181.1809
 Red. masses --      1.0409                 5.1780                 3.5926
 Frc consts  --      0.0087                 0.0864                 0.0695
 IR Inten    --      1.1718               175.4739                22.2680
  Atom  AN      X      Y      Z        X      Y      Z        X      Y      Z
     1   6     0.00   0.00   0.00     0.07   0.02  -0.05    -0.07   0.01  -0.10
     2   6     0.00   0.00  -0.02     0.07   0.02   0.01     0.00  -0.01   0.04
     3   6     0.00   0.00  -0.01     0.06   0.00   0.05     0.05   0.01   0.14
     4   6     0.00   0.00   0.00     0.06   0.01   0.05     0.05   0.02   0.15
     5   6     0.01   0.00   0.02     0.08   0.00   0.01     0.01   0.03   0.13
     6   6     0.01   0.00   0.02     0.07   0.02  -0.05    -0.06   0.02  -0.04
     7   1     0.00   0.00  -0.01     0.06   0.03  -0.10    -0.13   0.00  -0.26
     8   1    -0.01   0.00  -0.04     0.07   0.03   0.03     0.01  -0.03   0.05
     9   1     0.01   0.00   0.02     0.09  -0.02   0.03     0.02   0.06   0.19
    10   1     0.01   0.00   0.03     0.07   0.02  -0.10    -0.11   0.03  -0.13
    11   6     0.00   0.00   0.00     0.03   0.01   0.07     0.02   0.03   0.05
    12   6     0.00   0.00  -0.01     0.07   0.00   0.02     0.05   0.01   0.10
    13   6     0.00   0.00  -0.01     0.09  -0.01   0.08     0.02   0.03   0.02
    14   1     0.00   0.00  -0.01     0.04   0.04  -0.04    -0.02   0.06  -0.06
    15   6     0.00   0.00  -0.01     0.06  -0.01   0.01     0.03   0.01   0.04
    16   1     0.00   0.00  -0.01     0.05   0.00  -0.03     0.02   0.02  -0.01
    17   8     0.00   0.00   0.01     0.06   0.03   0.14     0.04  -0.01  -0.03
    18  17     0.00   0.00   0.01     0.08  -0.05  -0.03     0.01   0.00  -0.04
    19   6     0.00  -0.01   0.01    -0.22   0.02  -0.10    -0.06  -0.01  -0.09
    20   6     0.00  -0.01   0.01    -0.15   0.00   0.03    -0.01  -0.02  -0.04
    21   1     0.01  -0.01   0.01    -0.11  -0.01   0.11     0.03  -0.02   0.01
    22   6     0.00   0.00   0.01    -0.26   0.03  -0.20     0.08  -0.10   0.08
    23   1     0.05  -0.03   0.07    -0.29   0.00  -0.18     0.16  -0.16   0.19
    24   1    -0.03  -0.05  -0.06    -0.35  -0.02  -0.25     0.23  -0.13   0.00
    25   1    -0.03   0.09   0.01    -0.22   0.12  -0.28    -0.03  -0.11   0.21
    26   6    -0.02   0.00  -0.02    -0.07  -0.03   0.06    -0.15   0.07  -0.20
    27   1     0.17  -0.32   0.38    -0.04  -0.02   0.14    -0.20   0.12  -0.32
    28   1     0.30   0.45  -0.23     0.03  -0.16  -0.02    -0.27   0.12  -0.12
    29   1    -0.53  -0.07  -0.25    -0.06   0.00   0.16    -0.08   0.04  -0.28
    30   6     0.00  -0.01  -0.01    -0.21   0.02  -0.07    -0.01  -0.07  -0.07
    31   1    -0.01  -0.01  -0.01    -0.15   0.00   0.02     0.03  -0.08  -0.10
    32   1    -0.01  -0.01  -0.01    -0.17  -0.01  -0.01    -0.01  -0.13  -0.02
                     10                     11                     12
                      A                      A                      A
 Frequencies --    198.0718               217.7226               231.3078
 Red. masses --      4.2921                 9.7689                 4.2829
 Frc consts  --      0.0992                 0.2728                 0.1350
 IR Inten    --      2.4197                50.1934                79.4060
  Atom  AN      X      Y      Z        X      Y      Z        X      Y      Z
     1   6    -0.03   0.00   0.14     0.14   0.23  -0.06     0.08   0.03   0.08
     2   6    -0.04   0.01  -0.09     0.01   0.24   0.02    -0.01   0.04  -0.04
     3   6    -0.02   0.05  -0.15    -0.09   0.10   0.07    -0.07   0.00  -0.08
     4   6    -0.03   0.08  -0.15    -0.06   0.04   0.04    -0.05  -0.03  -0.05
     5   6    -0.08   0.09  -0.10     0.09   0.02   0.01     0.00  -0.04  -0.11
     6   6    -0.04   0.04   0.13     0.18   0.13  -0.04     0.07  -0.01   0.00
     7   1     0.00  -0.04   0.31     0.19   0.31  -0.12     0.15   0.05   0.21
     8   1    -0.04  -0.02  -0.15    -0.01   0.29   0.02    -0.03   0.08  -0.06
     9   1    -0.11   0.14  -0.17     0.14  -0.11   0.02     0.00  -0.08  -0.19
    10   1    -0.03   0.03   0.29     0.28   0.11  -0.07     0.13  -0.02   0.04
    11   6     0.01   0.06  -0.01    -0.08   0.05  -0.03     0.00  -0.02   0.10
    12   6     0.04   0.04  -0.01    -0.09   0.09   0.09    -0.07  -0.01  -0.04
    13   6     0.07   0.04   0.13    -0.11   0.07  -0.01     0.01  -0.02   0.07
    14   1     0.07   0.03   0.14    -0.09   0.02   0.07    -0.07   0.00  -0.05
    15   6     0.10   0.02   0.19    -0.06   0.11   0.08    -0.04   0.00   0.02
    16   1     0.15  -0.01   0.38    -0.06   0.10   0.12    -0.02  -0.01   0.05
    17   8     0.02   0.03  -0.01    -0.11   0.03  -0.13     0.03   0.04   0.24
    18  17     0.06   0.00  -0.02     0.03  -0.36  -0.06    -0.04  -0.06   0.03
    19   6    -0.05  -0.07  -0.06     0.07  -0.05   0.05    -0.07   0.08  -0.07
    20   6     0.02  -0.09   0.01     0.01  -0.02  -0.03    -0.01   0.05  -0.06
    21   1     0.03  -0.09   0.04    -0.07  -0.04  -0.12     0.06   0.11  -0.05
    22   6    -0.03  -0.08  -0.02     0.03  -0.02   0.04     0.09  -0.04   0.08
    23   1    -0.01  -0.09   0.01     0.03   0.01   0.00     0.15  -0.12   0.20
    24   1     0.00  -0.08  -0.04     0.01   0.01   0.07     0.27  -0.07  -0.01
    25   1    -0.06  -0.07   0.01     0.04  -0.03   0.03    -0.01  -0.07   0.20
    26   6    -0.15  -0.09  -0.09    -0.03  -0.06  -0.01     0.06   0.16  -0.06
    27   1    -0.17  -0.11  -0.18    -0.03  -0.12  -0.03     0.05   0.28  -0.04
    28   1    -0.23  -0.09  -0.03    -0.06   0.00   0.02     0.09   0.13  -0.09
    29   1    -0.14  -0.09  -0.08    -0.08  -0.07  -0.02     0.17   0.15  -0.11
    30   6     0.04  -0.08   0.08     0.05   0.03   0.12    -0.01  -0.09  -0.19
    31   1     0.03  -0.08   0.10    -0.04   0.05   0.10     0.14  -0.12  -0.28
    32   1     0.08  -0.07   0.10     0.07   0.10   0.07    -0.02  -0.27  -0.06
                     13                     14                     15
                      A                      A                      A
 Frequencies --    264.6849               301.4192               324.9880
 Red. masses --      2.8328                 3.5979                 7.2535
 Frc consts  --      0.1169                 0.1926                 0.4514
 IR Inten    --     21.3378                32.0149                55.7660
  Atom  AN      X      Y      Z        X      Y      Z        X      Y      Z
     1   6    -0.01   0.03   0.00    -0.02  -0.02  -0.03     0.11  -0.05  -0.08
     2   6    -0.01   0.03   0.01     0.00  -0.02  -0.03     0.00  -0.03   0.01
     3   6    -0.01   0.03   0.00     0.04   0.00   0.03    -0.05  -0.11   0.05
     4   6    -0.01   0.02   0.02     0.01   0.01  -0.05    -0.10  -0.10  -0.01
     5   6    -0.01   0.02   0.01     0.00   0.02  -0.01     0.07  -0.14  -0.01
     6   6    -0.01   0.03  -0.01     0.00  -0.01   0.05     0.15  -0.09  -0.02
     7   1     0.00   0.03   0.00    -0.04  -0.02  -0.07     0.13   0.01  -0.16
     8   1    -0.01   0.03   0.03     0.00  -0.03  -0.06    -0.02   0.06   0.03
     9   1    -0.01   0.01   0.01    -0.01   0.03  -0.01     0.12  -0.26   0.00
    10   1    -0.01   0.03  -0.03     0.00  -0.01   0.13     0.20  -0.10   0.02
    11   6    -0.01   0.00   0.02    -0.02   0.01  -0.12    -0.02   0.05  -0.06
    12   6     0.00   0.02  -0.05     0.06  -0.01   0.16     0.04  -0.12   0.08
    13   6     0.00  -0.01  -0.02    -0.04   0.02  -0.12     0.06   0.05  -0.11
    14   1     0.03   0.02  -0.02    -0.08   0.01  -0.13     0.10   0.06  -0.07
    15   6    -0.01   0.02  -0.09     0.06  -0.02   0.19     0.11  -0.04   0.03
    16   1    -0.05   0.03  -0.16     0.11  -0.04   0.39     0.20  -0.05   0.07
    17   8    -0.05  -0.01  -0.01     0.00  -0.01  -0.12    -0.16   0.45   0.06
    18  17     0.03   0.00   0.00     0.01   0.00  -0.04    -0.06   0.07   0.00
    19   6     0.04  -0.02   0.15    -0.08   0.06   0.07     0.03  -0.01   0.06
    20   6     0.08  -0.02   0.16    -0.10   0.06  -0.02     0.02   0.00   0.00
    21   1     0.20   0.04   0.22    -0.07   0.14  -0.11     0.02   0.00  -0.02
    22   6    -0.10  -0.04  -0.10    -0.04  -0.07   0.05     0.00  -0.13  -0.04
    23   1    -0.27  -0.04  -0.19    -0.09  -0.15   0.10    -0.10  -0.21  -0.02
    24   1    -0.25  -0.05  -0.08     0.03  -0.10  -0.02     0.03  -0.16  -0.09
    25   1     0.06  -0.03  -0.29    -0.03  -0.09   0.04     0.07  -0.14  -0.11
    26   6    -0.02   0.11  -0.02     0.12   0.09   0.13    -0.13  -0.04  -0.02
    27   1    -0.06   0.21  -0.11     0.17   0.17   0.30    -0.15  -0.11  -0.14
    28   1    -0.12   0.21   0.05     0.28   0.06   0.03    -0.24   0.04   0.06
    29   1     0.07   0.07  -0.16     0.15   0.10   0.13    -0.18  -0.04  -0.05
    30   6     0.09  -0.20  -0.01    -0.02  -0.12  -0.06     0.07   0.01   0.07
    31   1     0.22  -0.23  -0.23     0.08  -0.14  -0.24     0.02   0.02   0.05
    32   1    -0.05  -0.38  -0.01    -0.13  -0.27  -0.04     0.03   0.06  -0.01
                     16                     17                     18
                      A                      A                      A
 Frequencies --    363.1916               380.0904               393.3470
 Red. masses --      3.7450                 3.9468                 2.9858
 Frc consts  --      0.2911                 0.3359                 0.2722
 IR Inten    --     17.3913                 2.5090                 3.8315
  Atom  AN      X      Y      Z        X      Y      Z        X      Y      Z
     1   6     0.00  -0.01   0.00     0.00  -0.03  -0.03     0.03  -0.03   0.04
     2   6    -0.01  -0.01  -0.11     0.09  -0.05   0.11     0.01  -0.03  -0.10
     3   6     0.05  -0.02   0.10     0.01  -0.01  -0.15     0.05  -0.02   0.06
     4   6     0.03   0.01   0.00     0.04   0.03  -0.09     0.06   0.01   0.09
     5   6    -0.03   0.02  -0.12     0.06   0.02   0.15    -0.01   0.03  -0.08
     6   6     0.02  -0.01   0.09    -0.04   0.01  -0.08     0.01   0.00   0.02
     7   1    -0.02  -0.03  -0.02    -0.03  -0.06  -0.03     0.03  -0.06   0.09
     8   1    -0.07  -0.01  -0.33     0.18  -0.09   0.41    -0.05  -0.02  -0.30
     9   1    -0.10   0.06  -0.31     0.13   0.04   0.43    -0.07   0.06  -0.27
    10   1     0.05  -0.01   0.24    -0.10   0.03  -0.18    -0.02   0.01   0.02
    11   6     0.06   0.03  -0.02     0.08   0.07  -0.07     0.06   0.03   0.06
    12   6     0.01  -0.02   0.21    -0.11   0.00  -0.11    -0.03  -0.01   0.00
    13   6    -0.04   0.06  -0.12     0.00   0.08   0.00     0.03   0.04   0.11
    14   1    -0.09   0.06  -0.18    -0.05   0.04  -0.01     0.04   0.04   0.11
    15   6    -0.01   0.04   0.03     0.01   0.05   0.10    -0.03   0.04  -0.11
    16   1     0.00   0.04  -0.03     0.14   0.01   0.32    -0.05   0.06  -0.34
    17   8     0.11  -0.04   0.08     0.13   0.01  -0.02     0.04   0.00  -0.12
    18  17    -0.09  -0.03   0.00    -0.12  -0.05   0.05    -0.06  -0.02   0.02
    19   6     0.09  -0.04   0.05     0.00   0.04   0.01    -0.04   0.11  -0.01
    20   6     0.08  -0.04   0.11     0.05   0.03   0.07    -0.01   0.11  -0.04
    21   1     0.17  -0.12   0.35     0.14   0.02   0.21    -0.04   0.17  -0.17
    22   6     0.01   0.04  -0.06     0.01  -0.05  -0.05     0.02  -0.12  -0.05
    23   1    -0.04   0.10  -0.14    -0.08  -0.12  -0.03    -0.12  -0.28   0.05
    24   1    -0.14   0.05  -0.01     0.04  -0.08  -0.10     0.18  -0.17  -0.17
    25   1     0.07   0.08  -0.15     0.06  -0.07  -0.10     0.06  -0.19  -0.08
    26   6    -0.04  -0.03  -0.04    -0.05  -0.02   0.04    -0.07  -0.02   0.10
    27   1    -0.07  -0.06  -0.16    -0.04  -0.11   0.02    -0.04  -0.15   0.12
    28   1    -0.16   0.04   0.04    -0.06  -0.04   0.05    -0.04  -0.09   0.08
    29   1    -0.05  -0.04  -0.08    -0.11   0.00   0.10    -0.16   0.03   0.25
    30   6    -0.05   0.09  -0.12     0.01   0.02  -0.08     0.06  -0.01   0.04
    31   1    -0.14   0.11  -0.10     0.04   0.01  -0.12     0.16  -0.04  -0.03
    32   1    -0.09   0.17  -0.23    -0.04  -0.02  -0.09     0.07  -0.13   0.14
                     19                     20                     21
                      A                      A                      A
 Frequencies --    401.6038               432.6630               444.2270
 Red. masses --      3.5317                 2.7616                 2.5511
 Frc consts  --      0.3356                 0.3046                 0.2966
 IR Inten    --      3.2076                20.3240                15.3029
  Atom  AN      X      Y      Z        X      Y      Z        X      Y      Z
     1   6     0.04  -0.06  -0.01     0.07  -0.03   0.16     0.00   0.03   0.06
     2   6     0.05  -0.06  -0.04    -0.02  -0.01  -0.11    -0.08   0.05  -0.02
     3   6     0.06  -0.05   0.00    -0.01  -0.01  -0.06    -0.07   0.02   0.02
     4   6     0.05   0.03   0.01     0.05   0.00   0.19    -0.02  -0.06   0.08
     5   6     0.03   0.04  -0.02     0.03   0.01   0.03    -0.02  -0.08   0.01
     6   6     0.02   0.01   0.00    -0.03   0.01  -0.15    -0.01  -0.04  -0.05
     7   1     0.02  -0.09   0.00     0.16  -0.06   0.47     0.06   0.07   0.15
     8   1     0.04  -0.06  -0.08    -0.07   0.01  -0.29    -0.11   0.08  -0.11
     9   1     0.02   0.05  -0.06     0.01   0.00  -0.02    -0.02  -0.10  -0.04
    10   1    -0.03   0.01   0.02    -0.14   0.04  -0.46     0.02  -0.04  -0.17
    11   6     0.07   0.08   0.01     0.00   0.01   0.06     0.02   0.01  -0.01
    12   6    -0.04  -0.04  -0.01    -0.01  -0.01  -0.06    -0.01   0.01  -0.02
    13   6     0.02   0.09   0.07    -0.05   0.03  -0.11     0.07   0.00   0.00
    14   1     0.04   0.08   0.09    -0.06   0.07  -0.15     0.04   0.01  -0.03
    15   6     0.01   0.04  -0.04     0.03  -0.04   0.09     0.04   0.05   0.00
    16   1     0.06   0.03  -0.15     0.10  -0.06   0.33     0.04   0.04   0.01
    17   8     0.04   0.10  -0.08    -0.01  -0.01  -0.01     0.00   0.05  -0.12
    18  17    -0.09  -0.03   0.03     0.01   0.01   0.00     0.00   0.01   0.00
    19   6    -0.02  -0.12  -0.01     0.05  -0.02   0.07    -0.06   0.01  -0.14
    20   6    -0.09  -0.11  -0.02    -0.03  -0.01  -0.04     0.04  -0.01   0.17
    21   1    -0.17  -0.10  -0.14    -0.10   0.00  -0.15     0.26  -0.09   0.59
    22   6    -0.07   0.13   0.07    -0.02   0.00  -0.01     0.02   0.04   0.02
    23   1     0.11   0.32  -0.02    -0.06   0.01  -0.05     0.15   0.06   0.08
    24   1    -0.24   0.19   0.20    -0.10  -0.01   0.01     0.13   0.06   0.04
    25   1    -0.15   0.21   0.14     0.04   0.03  -0.09    -0.10   0.01   0.18
    26   6     0.11   0.04  -0.10    -0.02   0.02  -0.01     0.06  -0.06  -0.01
    27   1     0.10   0.25  -0.03    -0.04   0.03  -0.07     0.10  -0.08   0.12
    28   1     0.16   0.10  -0.13    -0.09   0.11   0.04     0.20  -0.24  -0.10
    29   1     0.25  -0.01  -0.26    -0.01  -0.01  -0.09     0.05  -0.01   0.16
    30   6    -0.05  -0.13   0.11    -0.02   0.03  -0.01    -0.03  -0.03  -0.05
    31   1    -0.07  -0.13   0.04    -0.10   0.05  -0.04     0.07  -0.06  -0.01
    32   1     0.00  -0.16   0.17    -0.01   0.07  -0.03    -0.17  -0.06  -0.15
                     22                     23                     24
                      A                      A                      A
 Frequencies --    475.2883               528.4997               538.2469
 Red. masses --      5.1488                 5.1041                 3.3623
 Frc consts  --      0.6853                 0.8400                 0.5739
 IR Inten    --      0.5576                 7.3431                 3.8064
  Atom  AN      X      Y      Z        X      Y      Z        X      Y      Z
     1   6     0.09  -0.03  -0.03    -0.01   0.20   0.02    -0.01   0.05   0.12
     2   6     0.17  -0.05  -0.06     0.07   0.14  -0.01     0.03   0.04  -0.10
     3   6     0.11  -0.10  -0.03    -0.08  -0.09   0.02     0.03   0.02  -0.06
     4   6     0.00   0.16   0.02    -0.08  -0.07   0.02     0.02  -0.01  -0.15
     5   6     0.01   0.21   0.01    -0.19  -0.04   0.05    -0.01   0.00   0.14
     6   6     0.01   0.22   0.01    -0.02   0.18   0.02    -0.08   0.04  -0.10
     7   1    -0.02  -0.15   0.00    -0.05   0.15   0.03     0.05  -0.01   0.43
     8   1     0.15  -0.03  -0.06     0.04   0.22  -0.01     0.04   0.00  -0.12
     9   1     0.01   0.18   0.00    -0.16  -0.10   0.04     0.07   0.02   0.48
    10   1    -0.10   0.23   0.05     0.13   0.14  -0.04    -0.09   0.05  -0.29
    11   6    -0.16   0.01   0.05     0.03   0.02  -0.03     0.03  -0.07  -0.08
    12   6     0.05  -0.14  -0.02     0.06  -0.17  -0.03     0.08   0.00   0.25
    13   6    -0.09  -0.03   0.00     0.17  -0.01  -0.04     0.03  -0.10   0.02
    14   1     0.00   0.10  -0.04     0.23   0.08  -0.07     0.02  -0.16   0.07
    15   6    -0.03  -0.23  -0.02     0.17  -0.09  -0.06    -0.04   0.01  -0.09
    16   1     0.01  -0.22  -0.02     0.27  -0.10  -0.09    -0.18   0.05  -0.37
    17   8    -0.19   0.01   0.00     0.08  -0.09  -0.03     0.00   0.05   0.04
    18  17    -0.02  -0.01   0.01    -0.07   0.01   0.02    -0.02  -0.01  -0.01
    19   6    -0.03   0.02  -0.09    -0.09  -0.03   0.04     0.03   0.01  -0.02
    20   6     0.06   0.01   0.11     0.08  -0.07  -0.09    -0.04   0.04   0.01
    21   1     0.23  -0.05   0.44     0.05  -0.01  -0.20    -0.07   0.03  -0.03
    22   6     0.04   0.01   0.02    -0.11  -0.05   0.05     0.04   0.02  -0.02
    23   1     0.12   0.00   0.07    -0.13  -0.07   0.06     0.04   0.02  -0.02
    24   1     0.15   0.02   0.01    -0.10  -0.07   0.03     0.04   0.02  -0.02
    25   1    -0.05  -0.03   0.13    -0.10  -0.06   0.05     0.04   0.02  -0.02
    26   6     0.03  -0.05  -0.01     0.00   0.06   0.03    -0.01  -0.01  -0.01
    27   1     0.05  -0.08   0.06     0.00   0.21   0.11    -0.01  -0.07  -0.04
    28   1     0.11  -0.17  -0.06     0.07   0.08  -0.02    -0.03  -0.02   0.00
    29   1     0.01  -0.01   0.12     0.11   0.03  -0.07    -0.04  -0.01   0.02
    30   6     0.01   0.00  -0.04     0.06   0.06  -0.02    -0.01  -0.04   0.04
    31   1     0.07  -0.01   0.00    -0.10   0.11   0.16     0.09  -0.07   0.04
    32   1    -0.10   0.01  -0.15     0.21   0.26  -0.03    -0.05  -0.12   0.07
                     25                     26                     27
                      A                      A                      A
 Frequencies --    541.1226               557.5619               656.1317
 Red. masses --      3.1563                 5.1309                 7.1017
 Frc consts  --      0.5445                 0.9398                 1.8013
 IR Inten    --     20.0196                 4.2443                24.2390
  Atom  AN      X      Y      Z        X      Y      Z        X      Y      Z
     1   6    -0.02   0.09  -0.03     0.12  -0.10  -0.02     0.01  -0.07   0.01
     2   6     0.05   0.06   0.02    -0.14  -0.06   0.02    -0.17  -0.03   0.04
     3   6    -0.02  -0.04   0.01    -0.16  -0.06  -0.05     0.00   0.13   0.10
     4   6    -0.02  -0.04   0.04    -0.20   0.07  -0.08     0.01   0.14   0.01
     5   6    -0.09  -0.02  -0.02     0.09   0.00   0.02     0.19   0.15  -0.02
     6   6     0.00   0.06   0.05     0.09  -0.02  -0.07     0.01  -0.04  -0.01
     7   1    -0.07   0.07  -0.11     0.22  -0.03   0.12     0.06   0.03  -0.07
     8   1     0.05   0.08   0.06    -0.13   0.06   0.19    -0.21  -0.03  -0.16
     9   1    -0.11  -0.04  -0.11     0.20  -0.17   0.25     0.14   0.19  -0.07
    10   1     0.09   0.04   0.09     0.03  -0.01  -0.03    -0.19   0.01  -0.07
    11   6     0.03   0.00   0.03    -0.09   0.19   0.11    -0.13  -0.06  -0.11
    12   6     0.01  -0.06  -0.07     0.06  -0.10   0.16     0.12   0.08  -0.10
    13   6     0.02   0.00  -0.06    -0.01   0.21   0.06     0.31  -0.16  -0.14
    14   1     0.05   0.03  -0.05     0.14   0.40   0.00     0.36  -0.08  -0.14
    15   6     0.06  -0.06   0.02     0.08   0.01  -0.07     0.23   0.13  -0.03
    16   1     0.13  -0.08   0.16     0.17   0.01  -0.31     0.18   0.11   0.16
    17   8     0.04  -0.02   0.02     0.03  -0.19  -0.03    -0.13  -0.12   0.10
    18  17    -0.01   0.01   0.01     0.02   0.03  -0.01    -0.15  -0.04   0.04
    19   6     0.14   0.04  -0.02     0.03   0.01   0.00     0.00   0.01  -0.02
    20   6    -0.18   0.11   0.06    -0.02   0.02   0.02    -0.03   0.04  -0.01
    21   1    -0.28   0.06  -0.07    -0.07   0.02  -0.06    -0.10   0.04  -0.12
    22   6     0.14   0.07  -0.08     0.03   0.02  -0.02     0.02   0.01  -0.01
    23   1     0.13   0.11  -0.12     0.03   0.02  -0.02     0.05   0.01   0.01
    24   1     0.07   0.08  -0.05     0.03   0.01  -0.01     0.06   0.02   0.00
    25   1     0.18   0.11  -0.13     0.04   0.01  -0.03    -0.01  -0.01   0.03
    26   6    -0.01  -0.06  -0.03    -0.01  -0.01  -0.01     0.00  -0.01  -0.01
    27   1    -0.03  -0.26  -0.18     0.00  -0.06  -0.03     0.01  -0.05  -0.03
    28   1    -0.15  -0.03   0.06    -0.03  -0.01   0.01     0.00  -0.03  -0.01
    29   1    -0.16  -0.04   0.05    -0.03   0.00   0.02    -0.02  -0.01   0.01
    30   6    -0.11  -0.10   0.08    -0.02  -0.01   0.00     0.00  -0.03   0.05
    31   1     0.12  -0.16  -0.17    -0.03  -0.01  -0.19     0.13  -0.06   0.21
    32   1    -0.27  -0.39   0.15    -0.01  -0.13   0.10    -0.05  -0.03   0.01
                     28                     29                     30
                      A                      A                      A
 Frequencies --    671.3873               754.5992               773.3888
 Red. masses --      4.2926                 6.6277                 4.0569
 Frc consts  --      1.1400                 2.2236                 1.4297
 IR Inten    --     27.6216                17.8381                87.6474
  Atom  AN      X      Y      Z        X      Y      Z        X      Y      Z
     1   6     0.06  -0.02   0.06     0.19  -0.17  -0.08    -0.02   0.02   0.02
     2   6    -0.01  -0.01  -0.04     0.14  -0.15  -0.05     0.09   0.00  -0.05
     3   6     0.05  -0.06   0.29    -0.01  -0.10  -0.07     0.11  -0.03   0.21
     4   6    -0.07   0.00  -0.09    -0.04  -0.09   0.08    -0.05  -0.01  -0.25
     5   6    -0.01  -0.02   0.07    -0.22  -0.06   0.06    -0.03  -0.04  -0.01
     6   6     0.00   0.04  -0.04     0.02   0.23   0.03    -0.03  -0.03  -0.06
     7   1     0.00  -0.02  -0.08    -0.02  -0.39  -0.05     0.00  -0.04   0.21
     8   1    -0.21   0.08  -0.64     0.14  -0.06   0.07     0.03  -0.03  -0.31
     9   1     0.01  -0.07   0.08    -0.20  -0.19  -0.10     0.15  -0.07   0.59
    10   1    -0.07   0.05  -0.33    -0.01   0.21   0.00     0.11  -0.06   0.24
    11   6    -0.07   0.08  -0.30    -0.06  -0.04  -0.05     0.03  -0.03   0.30
    12   6    -0.08  -0.03  -0.15    -0.18   0.08   0.08    -0.05   0.04  -0.10
    13   6    -0.05   0.07   0.12     0.11  -0.04  -0.04     0.01   0.01  -0.08
    14   1     0.00  -0.05   0.27    -0.02  -0.17  -0.01    -0.01   0.15  -0.23
    15   6    -0.04  -0.03   0.03     0.03   0.39   0.03     0.05   0.08   0.04
    16   1     0.04  -0.04   0.07    -0.01   0.37   0.05     0.07   0.07   0.14
    17   8     0.05  -0.03   0.09    -0.09  -0.07   0.05    -0.07  -0.02  -0.06
    18  17     0.04   0.01   0.00     0.05   0.02  -0.01     0.00   0.00   0.00
    19   6     0.00   0.00   0.00    -0.01   0.00  -0.01     0.01   0.00   0.01
    20   6     0.01   0.00   0.02     0.00   0.02   0.00    -0.02   0.00  -0.02
    21   1    -0.01   0.01  -0.03    -0.02   0.02  -0.03     0.01  -0.01   0.05
    22   6     0.02   0.01  -0.01     0.00   0.00   0.00    -0.01   0.00   0.01
    23   1     0.02   0.01  -0.01     0.02   0.00   0.01    -0.02  -0.01   0.00
    24   1     0.02   0.01   0.00     0.04   0.01   0.00    -0.01   0.00   0.00
    25   1     0.01   0.00   0.00    -0.02  -0.02   0.04     0.01   0.00  -0.01
    26   6     0.01   0.00   0.00     0.00  -0.01  -0.01    -0.01   0.00   0.00
    27   1     0.00  -0.02  -0.04     0.01  -0.02   0.00     0.00   0.01   0.04
    28   1    -0.01   0.01   0.01     0.02  -0.03  -0.01     0.00  -0.01  -0.01
    29   1    -0.01  -0.01  -0.02    -0.01   0.00   0.01     0.01   0.01   0.03
    30   6     0.00  -0.01   0.00     0.00  -0.01   0.01     0.00   0.01  -0.01
    31   1     0.02  -0.02  -0.10     0.06  -0.02   0.08    -0.03   0.02   0.04
    32   1     0.04  -0.09   0.09    -0.02   0.00  -0.01    -0.06   0.07  -0.10
                     31                     32                     33
                      A                      A                      A
 Frequencies --    788.3030               804.8130               814.9146
 Red. masses --      2.2323                 1.3637                 2.1673
 Frc consts  --      0.8173                 0.5204                 0.8480
 IR Inten    --     37.8176                35.8280                74.5244
  Atom  AN      X      Y      Z        X      Y      Z        X      Y      Z
     1   6     0.08  -0.07  -0.03     0.00  -0.01  -0.06    -0.08   0.06  -0.01
     2   6    -0.14  -0.03   0.03    -0.05   0.00  -0.05     0.10   0.03  -0.06
     3   6    -0.06   0.01   0.05     0.00   0.00   0.06     0.04  -0.03  -0.01
     4   6    -0.03   0.01  -0.01     0.01   0.00   0.06     0.02   0.00   0.07
     5   6    -0.02   0.06   0.00    -0.02   0.02  -0.04     0.02  -0.04  -0.03
     6   6     0.03   0.12  -0.01    -0.01   0.03  -0.06    -0.03  -0.11  -0.03
     7   1     0.11  -0.04   0.06     0.17  -0.05   0.52     0.01   0.02   0.30
     8   1    -0.15   0.06   0.07     0.06  -0.01   0.37     0.20  -0.06   0.20
     9   1     0.03  -0.01   0.11     0.08  -0.02   0.27     0.03  -0.01   0.03
    10   1    -0.03   0.12   0.13     0.14  -0.01   0.55     0.13  -0.13   0.22
    11   6     0.08  -0.03   0.02     0.00  -0.01  -0.06    -0.08   0.07  -0.08
    12   6     0.00   0.00  -0.01     0.00   0.00  -0.03    -0.02  -0.01   0.00
    13   6    -0.01  -0.07   0.00     0.00  -0.02   0.00     0.00   0.08   0.05
    14   1    -0.06  -0.14   0.03    -0.02  -0.05   0.01     0.08   0.09   0.12
    15   6    -0.03  -0.05   0.01    -0.01  -0.02   0.01     0.03   0.04   0.00
    16   1    -0.09  -0.04   0.03    -0.03  -0.01   0.01     0.10   0.03  -0.06
    17   8     0.09   0.04  -0.03     0.02   0.01   0.01    -0.05  -0.05   0.04
    18  17     0.01   0.00   0.00     0.00   0.00   0.00     0.00   0.00   0.00
    19   6     0.02   0.01   0.03    -0.01   0.00  -0.01     0.02   0.01   0.02
    20   6    -0.06  -0.01  -0.10     0.03   0.00   0.04    -0.06   0.01  -0.09
    21   1     0.17  -0.05   0.29    -0.08   0.02  -0.14     0.19  -0.05   0.33
    22   6     0.03   0.01   0.00    -0.01   0.00   0.00     0.03   0.01   0.00
    23   1    -0.05   0.00  -0.04     0.01   0.00   0.01    -0.01   0.01  -0.03
    24   1    -0.06  -0.01  -0.02     0.02   0.01   0.01    -0.03  -0.01  -0.01
    25   1     0.11   0.05  -0.12    -0.04  -0.02   0.04     0.08   0.03  -0.08
    26   6    -0.01   0.03   0.04     0.00  -0.01  -0.01     0.00   0.02   0.02
    27   1    -0.02   0.02  -0.01     0.01   0.00   0.00    -0.01  -0.01  -0.03
    28   1    -0.05   0.09   0.06     0.02  -0.03  -0.02    -0.05   0.07   0.05
    29   1    -0.01   0.02   0.00     0.01  -0.01  -0.01    -0.02   0.01   0.00
    30   6     0.00  -0.08  -0.01     0.00   0.03   0.01     0.00  -0.07  -0.01
    31   1     0.13  -0.08   0.58    -0.05   0.03  -0.22     0.15  -0.08   0.48
    32   1    -0.17   0.22  -0.39     0.08  -0.09   0.16    -0.16   0.16  -0.33
                     34                     35                     36
                      A                      A                      A
 Frequencies --    891.2397               900.9047               902.7947
 Red. masses --      2.0468                 1.4781                 1.2312
 Frc consts  --      0.9579                 0.7068                 0.5912
 IR Inten    --     15.6247                 3.6228               214.4814
  Atom  AN      X      Y      Z        X      Y      Z        X      Y      Z
     1   6     0.00   0.00   0.00    -0.01   0.00  -0.03     0.00  -0.01  -0.01
     2   6     0.00   0.00  -0.01    -0.04   0.01  -0.12    -0.01   0.00  -0.03
[...]
 328,-0.00030593,-0.00004532,0.00023547,-0.00030389,0.00034849,-0.00022
 901,0.00038181,-0.00003906,0.00025395,-0.00006163,-0.00009762,-0.00000
 886,0.00001121,0.00001236,-0.00000776,-0.00000651,0.00000926,0.0000318
 6,0.00002048,-0.00002309,0.00000662,0.00000909,0.00000574,0.00006435,-
 0.00041513,-0.00060539,-0.00015236,0.00034245,0.00012128,-0.00084549,0
 .00043069,-0.00062915,0.00001730,0.00002558,0.00011052,0.00047251,-0.0
 0000524,-0.00013648,-0.00000676,0.00000203,-0.00000078,-0.00031817,-0.
 00011073,-0.00034633,0.00001769,-0.00000530,-0.00002154,-0.01694279,0.
 00827492,0.01625125,-0.00086267,-0.00132938,-0.00014614,-0.00009847,-0
 .00012430,0.00009091,0.00023690,0.00026108,0.00009157,-0.00006299,0.00
 000998,0.00009902,-0.00002784,-0.00005291,0.00008232,-0.00007451,-0.00
 000867,-0.00000648,-0.19382870,-0.03332873,0.04937781,0.23557440,0.000
 04810,0.00006435,-0.00000879,0.00002270,-0.00009658,-0.00001574,-0.000
 06165,0.00012218,0.00003071,0.00008242,-0.00004820,0.00003933,0.000111
 77,-0.00007728,-0.00000636,-0.00009793,0.00000368,0.00004793,-0.000008
 21,0.00000036,-0.00000116,-0.00000470,-0.00000144,0.00000104,0.0000736
 5,-0.00007521,0.00009775,-0.00001079,-0.00000440,-0.00000943,-0.000346
 37,0.00037720,-0.00038658,0.00000765,-0.00017504,-0.00001168,0.0002761
 5,-0.00002907,0.00022507,0.00001623,-0.00004227,-0.00007555,-0.0002616
 5,0.00000718,0.00008852,0.00000016,-0.00002125,-0.00000888,0.00033739,
 -0.00026095,0.00017390,0.00007525,0.00002881,-0.00003433,0.01711126,0.
 00381476,-0.00879090,-0.00022020,-0.00071578,-0.00000718,0.00003723,0.
 00003553,-0.00011439,0.00075666,-0.00112840,-0.00174121,0.00024958,0.0
 0017235,-0.00014672,-0.00000837,-0.00004509,0.00003630,-0.00013476,-0.
 00003179,0.00000508,-0.03565512,-0.04097313,0.01017077,0.03781147,0.04
 627678,-0.00009936,-0.00013602,0.00000600,0.00007484,0.00006555,-0.000
 02766,0.00001445,0.00002293,-0.00004505,0.00018681,-0.00029894,0.00021
 397,-0.00021480,0.00040038,-0.00006860,0.00028236,-0.00016818,-0.00011
 211,-0.00005300,0.00004761,0.00002155,-0.00008188,-0.00002613,0.000023
 24,-0.00005133,0.00015411,-0.00017126,0.00002965,0.00009335,-0.0000048
 9,-0.00218304,-0.00106027,-0.00169747,-0.00013228,-0.00026903,0.000017
 63,0.00074002,0.00056647,0.00029061,0.00009739,-0.00012545,-0.00018636
 ,-0.00047747,0.00002928,0.00020392,-0.00000931,-0.00008440,-0.00002298
 ,0.00132841,0.00031483,0.00060805,0.00024846,0.00011567,-0.00007133,0.
 02398715,-0.00538212,-0.01205794,-0.00011217,0.00079685,-0.00015938,0.
 00015325,0.00000468,-0.00020560,0.00080757,-0.00141229,-0.00106641,0.0
 0028837,0.00012127,-0.00017710,-0.00002656,-0.00004349,0.00000363,-0.0
 0002942,-0.00000587,0.00004344,0.04733777,0.00971686,-0.04590373,-0.06
 540681,-0.00624910,0.05768467,-0.00001508,-0.00001836,0.00000188,0.000
 02486,-0.00000944,-0.00001063,-0.00000192,0.00007961,-0.00000300,0.000
 09835,-0.00011553,0.00005889,0.00000317,0.00006536,0.00002035,0.000041
 46,-0.00004625,-0.00003128,-0.00001105,0.00000993,0.00000742,-0.000020
 50,-0.00000589,0.00000811,-0.00000129,0.00001577,-0.00001515,0.0000083
 4,0.00002344,0.00000348,-0.00072397,-0.00004522,0.00019415,0.00000752,
 -0.00016890,-0.00002133,0.00052664,0.00012668,0.00022268,0.00003131,-0
 .00006049,-0.00009374,-0.00033520,-0.00000001,0.00011160,-0.00000047,-
 0.00002660,-0.00000381,0.00136886,0.00003506,0.00095172,0.00008635,0.0
 0002930,-0.00003870,0.00696723,-0.00199895,-0.00059457,-0.00025475,0.0
 0083118,0.00034558,0.00000788,0.00003848,-0.00026102,-0.00103793,0.000
 08990,-0.00000391,-0.00001777,-0.00003006,-0.00002285,0.00007013,0.000
 09923,0.00002894,-0.00050522,0.00008611,0.00066608,-0.08968768,0.00329
 959,-0.08493566,-0.02094046,-0.00087199,-0.01567479,0.10353393,0.00003
 483,0.00003451,-0.00001300,0.00002071,-0.00005665,-0.00001055,-0.00000
 153,0.00007802,0.00000895,-0.00003839,0.00006953,0.00005415,0.00002614
 ,-0.00005761,-0.00000440,-0.00003830,0.00000493,0.00001459,-0.00000547
 ,0.00000405,0.00000153,-0.00000314,-0.00000068,0.00000185,0.00000344,0
 .00000665,-0.00000811,0.00000153,0.00000465,0.00000011,0.00082318,0.00
 039840,-0.00030844,-0.00001158,-0.00008943,-0.00000636,0.00013290,-0.0
 0037076,0.00037376,-0.00001459,0.00001385,-0.00004741,-0.00005870,0.00
 001533,0.00000912,-0.00000126,-0.00000502,-0.00000171,-0.00136873,-0.0
 0019060,-0.00129232,0.00001434,0.00000752,-0.00000790,-0.00540854,-0.0
 0297248,-0.01927896,0.00102333,0.00002536,-0.00013672,0.00014360,-0.00
 008259,0.00036332,0.00013053,-0.00007718,0.00010578,0.00003014,-0.0000
 5006,0.00004245,-0.00010121,0.00003983,0.00003518,0.00013432,0.0000233
 4,-0.00011847,0.00313216,-0.03024958,0.00348822,-0.00446865,0.00357489
 ,-0.00320920,-0.00452030,0.03476738,0.00010824,0.00010092,-0.00002651,
 0.00010049,-0.00019400,-0.00004590,-0.00000343,0.00035259,0.00002117,-
 0.00000633,0.00014669,0.00013633,0.00006923,-0.00013431,0.00001274,-0.
 00009784,-0.00002468,0.00002332,-0.00002677,0.00002276,0.00000964,-0.0
 0003612,-0.00001058,0.00000935,-0.00001813,0.00004066,-0.00005115,0.00
 001164,0.00003859,-0.00000111,0.00068559,0.00062875,-0.00041260,0.0000
 1064,-0.00049177,-0.00006565,0.00116497,-0.00061022,0.00120062,-0.0000
 0303,-0.00004233,-0.00024279,-0.00061812,0.00004824,0.00020305,-0.0000
 0372,-0.00004914,-0.00001160,-0.00089780,-0.00034306,-0.00068169,0.000
 13541,0.00005971,-0.00004058,-0.00665569,-0.01661001,-0.03284527,0.001
 82683,0.00248589,-0.00019064,0.00027208,-0.00009119,0.00024690,0.00002
 785,0.00023959,0.00085530,0.00000531,-0.00012753,-0.00001208,0.0000050
 4,0.00007353,-0.00021722,0.00080526,-0.00006251,-0.00044041,-0.0858658
 4,0.00387644,-0.15438032,-0.00395553,-0.00050259,0.00305215,0.10354109
 ,0.00267155,0.19531912,-0.00007898,-0.00012003,0.00000538,0.00004000,0
 .00010244,-0.00001336,0.00008027,-0.00004860,-0.00004504,0.00010407,-0
 .00008065,0.00009467,-0.00030243,0.00009474,0.00007932,0.00023370,-0.0
 0008353,-0.00010177,-0.00002421,0.00003061,0.00001615,-0.00004850,-0.0
 0001651,0.00001699,-0.00012133,0.00019746,-0.00034089,0.00003099,0.000
 06763,0.00000704,-0.00072651,-0.00072164,-0.00043436,-0.00009621,-0.00
 005914,0.00002876,0.00008349,0.00027588,0.00004383,0.00003403,-0.00002
 853,-0.00004532,-0.00005688,0.00002936,0.00003382,-0.00000448,-0.00002
 951,-0.00000677,0.00008844,0.00034128,0.00037419,0.00009318,0.00004298
 ,-0.00003069,0.00320121,0.01119763,-0.00057118,-0.00003970,0.00079371,
 0.00082294,0.00010847,0.00008428,0.00005221,-0.00055950,0.00028182,0.0
 0025136,0.00001452,0.00002282,0.00002348,-0.00022582,0.00006106,0.0005
 3382,-0.00048148,0.00017948,0.00013373,-0.03312261,-0.00209763,0.00222
 794,-0.00409949,-0.01911308,0.00961854,0.00127445,0.01105387,-0.008398
 32,0.03467497,0.00003308,0.00004345,-0.00001509,0.00008262,-0.00011463
 ,-0.00004511,-0.00001665,0.00024270,0.00002108,0.00021402,-0.00011607,
 0.00018190,0.00007958,0.00005875,-0.00004742,-0.00001142,-0.00007807,-
 0.00000660,-0.00003261,0.00002334,0.00001283,-0.00004594,-0.00001238,0
 .00001438,-0.00013857,0.00011346,-0.00007046,0.00000042,0.00004301,-0.
 00000275,-0.00126716,-0.00020011,-0.00027704,-0.00001338,-0.00042005,-
 0.00003986,0.00110038,0.00009882,0.00060227,0.00005261,-0.00010576,-0.
 00020579,-0.00065618,0.00002698,0.00022844,-0.00000203,-0.00006102,-0.
 00001228,0.00114510,0.00011372,0.00080641,0.00017926,0.00007651,-0.000
 06827,0.00708931,-0.03512122,-0.00757824,0.00125311,0.00070637,-0.0010
 9895,0.00001845,-0.00027229,-0.00026635,-0.00025327,0.00030054,0.00041
 360,-0.00013343,-0.00014168,-0.00003113,0.00027551,0.00012420,-0.00045
 433,0.00041684,-0.00007221,-0.00001736,-0.00129752,-0.19458862,0.05755
 559,-0.00782797,-0.00959766,0.00705718,0.00329796,-0.00477987,0.008638
 34,-0.00238747,0.24378888,-0.00010796,-0.00012560,0.00001819,0.0000058
 1,0.00014421,-0.00000056,0.00006266,-0.00012901,-0.00003841,0.00020908
 ,-0.00013884,0.00007946,-0.00023031,0.00012731,0.00006190,0.00021996,-
 0.00007050,-0.00007367,-0.00001546,0.00001741,0.00000621,-0.00003650,-
 0.00001289,0.00001045,-0.00006302,0.00013872,-0.00018025,0.00001692,0.
 00004837,-0.00000662,-0.00136438,-0.00091434,-0.00022242,-0.00005712,0
 .00002556,0.00001704,0.00006570,0.00052350,-0.00031598,0.00004751,-0.0
 0004936,-0.00000656,-0.00004701,-0.00000285,0.00005240,-0.00000244,-0.
 00002107,-0.00000590,0.00096723,0.00078411,0.00072071,0.00007052,0.000
 03500,-0.00001882,0.00186962,-0.01891964,0.00494882,0.00061750,-0.0016
 9324,-0.00166614,-0.00015367,-0.00032556,-0.00015322,0.00022124,-0.000
 07148,-0.00037796,-0.00002370,-0.00003937,0.00000653,0.00042848,-0.000
 05479,-0.00051821,0.00012656,-0.00012134,0.00007921,0.00127142,0.06047
 150,-0.05326432,0.00436328,0.00783379,-0.00035588,-0.00447151,0.017685
 81,-0.01078553,-0.00436019,-0.06522023,0.06163436,0.00681001,0.0075629
 7,-0.00139375,0.00438027,-0.01152512,-0.00210686,-0.00092731,0.0204322
 5,0.00220079,-0.01089754,0.01105720,0.00326804,0.00304928,-0.00962174,
 -0.00157175,-0.00907635,0.00086866,0.00281338,-0.00050555,0.00038499,0
 .00015434,-0.00062384,-0.00012414,0.00021047,0.00069741,0.00021822,-0.
 00016264,0.00015547,0.00059760,-0.00003388,0.06785710,0.07023305,-0.02
 326491,0.00487726,-0.02515342,-0.00529444,0.06780927,-0.06327409,0.094
 57130,-0.00216907,0.00010603,-0.01649372,-0.04617716,0.00184363,0.0030
 3424,-0.00029146,-0.00140253,-0.00008099,-0.08416800,-0.01498914,-0.02
 063123,0.00285366,0.00124086,-0.00059419,0.00111341,-0.11169042,0.0446
 7462,-0.28682402,-0.02211116,0.08522253,-0.03633545,0.00302338,0.01789
 960,0.00929206,0.00353997,-0.00012775,-0.00123082,0.00038808,0.0010933
 2,-0.00061843,-0.00183930,0.00107570,-0.00095341,-0.00043073,-0.001056
 83,-0.00621848,0.00694927,0.00077554,0.00170670,0.00026511,-0.00048812
 ,-0.00044471,-0.00066318,-0.00221150,-0.00004834,-0.00115254,0.0004031
 2,0.44270009,-0.00000043,-0.00010084,-0.00000301,-0.00011075,0.0001214
 8,0.00008746,-0.00003930,-0.00076627,0.00000582,0.00035234,-0.00056343
 ,-0.00079760,-0.00006650,0.00010513,0.00011794,0.00014592,0.00012976,0
 .00002469,0.00000533,-0.00000004,-0.00001055,0.00006850,0.00000953,-0.
 00001349,-0.00002702,0.00001927,-0.00002433,-0.00002002,-0.00006931,-0
 .00001978,0.00480431,-0.00622953,0.00825558,-0.00067741,0.00119202,0.0
 0034400,-0.00459808,-0.01350267,-0.00172980,-0.00051543,0.00148610,-0.
 00167019,0.00318308,0.00118250,-0.00154638,-0.00019823,-0.00000312,-0.
 00004837,-0.00362611,-0.00306906,0.00096024,-0.00013952,-0.00009490,0.
 00012338,-0.03121523,-0.03055227,0.01341725,-0.11727143,-0.10282164,0.
 03455327,0.01112272,0.00676822,-0.00489990,-0.00088061,-0.00286965,0.0
 0033874,0.00016395,-0.00008520,-0.00018370,-0.00040117,-0.00001891,0.0
 0008677,-0.00004469,-0.00004503,0.00016794,-0.00187402,-0.00311808,-0.
 00033825,-0.00000052,-0.00163799,-0.00056984,-0.00001095,0.00004031,0.
 00008826,-0.00008343,0.00012141,0.00008222,0.11811035,0.45596408,0.003
 70526,0.00414283,-0.00075888,0.00250381,-0.00638619,-0.00118125,-0.000
 39246,0.01162566,0.00130885,-0.00532952,0.00595195,0.00158000,0.001699
 36,-0.00508117,-0.00079778,-0.00489142,0.00037347,0.00149698,-0.000305
 44,0.00023429,0.00009309,-0.00039541,-0.00007911,0.00012020,0.00038289
 ,0.00017524,-0.00012550,0.00010028,0.00038450,-0.00002161,0.02872859,0
 .04108577,-0.01516396,0.00406705,-0.01504602,-0.00331906,0.05112887,-0
 .03322066,0.03970520,-0.00529538,-0.00158740,-0.02274028,-0.02897573,0
 .00023440,0.00498386,-0.00001569,-0.00075080,0.00004954,-0.03529692,-0
 .00544415,-0.00785652,0.00150406,0.00072220,-0.00057627,0.01142272,-0.
 02303986,0.01702739,0.15229153,0.07036115,-0.10315492,0.01933392,0.002
 34129,-0.00339116,0.00465966,0.00145702,0.00214364,-0.00052680,0.00013
 683,0.00052398,-0.00035860,-0.00073131,0.00050155,0.00000789,-0.000008
 35,-0.00061404,-0.00284146,0.00291160,-0.00081116,0.00033844,-0.001275
 89,-0.00014266,-0.00006706,-0.00049772,-0.00091470,-0.00004346,-0.0003
 2628,0.00034790,-0.26825109,0.01351701,0.22729215,-0.00013657,-0.00013
 534,0.00002829,-0.00008037,0.00021740,0.00003987,0.00005883,-0.0002952
 3,-0.00007041,0.00008540,-0.00014836,0.00008965,-0.00005300,0.00015488
 ,0.00001482,0.00014834,-0.00003216,-0.00005420,0.00001183,-0.00001084,
 -0.00000349,0.00000301,0.00000212,-0.00000140,-0.00001092,-0.00001150,
 0.00000827,-0.00000167,-0.00000332,0.00000224,-0.00170448,-0.00220639,
 0.00005880,-0.00003906,0.00030210,0.00001639,-0.00295224,0.00658410,-0
 .00597038,0.00025872,0.00012792,0.00021672,-0.00001967,0.00053241,-0.0
 0059708,-0.00043055,-0.00001871,-0.00027601,0.00187700,0.00052097,0.00
 031558,-0.00003002,-0.00000519,-0.00000122,-0.00188621,0.00004771,0.00
 257805,-0.01470880,-0.03227415,0.00481656,-0.00073999,-0.00033497,-0.0
 0084946,-0.00041249,-0.00057088,-0.00013298,0.00006391,-0.00001470,-0.
 00006640,-0.00004212,0.00002835,-0.00001582,-0.00001920,-0.00000905,0.
 00007964,0.00016220,0.00024840,0.00002292,-0.00002581,-0.00003368,-0.0
 0000952,0.00000184,0.00000447,0.00001229,-0.00002862,0.00001812,0.0000
 0304,-0.03714435,-0.03072242,0.00154724,0.05362305,-0.00004040,-0.0000
 3614,0.00001078,-0.00008973,0.00012040,0.00003311,0.00001947,-0.000269
 58,-0.00000203,-0.00011168,0.00008532,-0.00002018,-0.00005459,-0.00000
 028,0.00000709,0.00002493,0.00008517,0.00000069,0.00003399,-0.00002693
 ,-0.00001244,0.00005540,0.00001519,-0.00001246,-0.00002959,-0.00003263
 ,0.00002334,-0.00001647,-0.00005814,0.00000036,0.00105166,-0.00012725,
 -0.00007773,0.00002448,0.00043824,0.00001155,0.00272446,-0.00452296,0.
 00518259,0.00001493,0.00012980,0.00067956,0.00113705,-0.00013597,0.000
 16141,0.00001712,0.00008004,0.00003330,-0.00178243,0.00072756,-0.00115
 096,-0.00025410,-0.00006915,0.00008808,-0.00107836,-0.00343059,0.00021
 816,-0.01320434,-0.01482803,0.00303737,-0.00030523,0.00062981,0.000524
 02,0.00063807,0.00033804,0.00001276,-0.00010355,0.00002705,0.00008794,
 -0.00004777,-0.00012466,0.00007278,-0.00007198,-0.00003659,-0.00007905
 ,-0.00001674,0.00052523,0.00032517,0.00004928,-0.00006862,-0.00011551,
 -0.00006472,-0.00002791,-0.00011933,-0.00003422,-0.00010518,0.00000090
 ,-0.03641537,-0.21604843,0.00113445,0.04667967,0.25445764,-0.00026759,
 -0.00031333,0.00005187,-0.00016739,0.00044649,0.00007860,0.00005473,-0
 .00075731,-0.00011404,0.00042726,-0.00049292,0.00006413,-0.00011557,0.
 00038925,0.00004520,0.00036651,-0.00005715,-0.00012947,0.00000888,-0.0
 0000652,-0.00000058,0.00001000,0.00000182,-0.00000336,-0.00001433,-0.0
 0000575,0.00000422,-0.00000146,-0.00000908,0.00000498,-0.00317959,-0.0
 0320670,-0.00011499,-0.00026533,0.00089741,0.00016731,-0.00703342,0.01
 176726,-0.00978917,-0.00004086,0.00053946,-0.00051789,0.00096637,0.000
 36047,-0.00062392,-0.00027542,0.00001810,-0.00017117,0.00326243,0.0008
 2508,0.00072232,-0.00001997,-0.00002608,0.00000403,0.00215865,0.001601
 70,0.00266091,0.00254810,0.00603165,0.00458391,-0.00038514,0.00054803,
 -0.00146660,-0.00058138,0.00006501,-0.00039764,0.00003992,-0.00002873,
 -0.00003196,0.00008408,0.00005898,-0.00006121,-0.00003166,-0.00002546,
 0.00009180,-0.00019697,-0.00007804,-0.00015675,0.00005443,0.00019158,0
 .00007410,0.00005984,0.00000738,0.00004318,-0.00004876,0.00008390,0.00
 003331,0.00607724,-0.00000183,-0.03248952,-0.00507915,-0.00422558,0.03
 453485,-0.00029525,-0.00034830,0.00005691,-0.00022804,0.00052898,0.000
 10583,0.00008976,-0.00097399,-0.00004716,0.00033369,-0.00037211,-0.000
 27609,-0.00016951,0.00039572,0.00006977,0.00040112,0.00000811,-0.00011
 845,0.00003102,-0.00002450,-0.00000849,0.00005140,0.00000909,-0.000009
 14,-0.00003169,-0.00002791,0.00001893,-0.00001439,-0.00005237,0.000002
 95,-0.00178903,-0.00299670,0.00003025,-0.00044494,0.00126167,0.0002677
 4,-0.00342618,0.00225527,-0.00896540,-0.00010612,0.00016664,0.00045787
 ,0.00175530,-0.00022864,-0.00147757,-0.00002038,0.00009368,-0.00003010
 ,0.00211854,0.00131485,-0.00009635,-0.00015015,-0.00008660,0.00001996,
 -0.00179947,0.00163524,-0.00134081,-0.03099254,0.00640099,0.02391804,-
 0.00117884,-0.00130457,0.00302544,-0.00009690,0.00004421,-0.00011945,0
 .00001866,0.00001203,-0.00002346,0.00002920,0.00002461,-0.00001925,-0.
 00000072,0.00000688,-0.00000563,-0.00004057,-0.00064901,0.00010948,0.0
 0010969,-0.00045339,-0.00014637,-0.00005532,-0.00000552,0.00001716,0.0
 0000278,-0.00002031,-0.00003594,-0.08862122,0.05456775,0.06957302,0.00
 417151,0.00124990,0.00158447,0.12034541,0.00019851,0.00027784,-0.00003
 529,0.00015271,-0.00036740,-0.00006515,0.00001409,0.00079394,0.0000423
 4,-0.00042704,0.00035565,0.00018636,0.00012372,-0.00032670,-0.00007341
 ,-0.00034185,-0.00000111,0.00011220,-0.00000671,0.00000188,-0.00000201
 ,-0.00003358,-0.00000244,0.00000437,0.00001767,0.00000214,0.00000353,0
 .00000643,0.00003272,-0.00000242,0.00151043,0.00096680,0.00173531,0.00
 034584,-0.00102906,-0.00029537,0.00217935,-0.00019159,0.00300920,0.000
 06084,-0.00009578,-0.00027306,-0.00197464,0.00014754,0.00026988,-0.000
 01221,-0.00004852,0.00000275,-0.00065559,-0.00093103,0.00006108,0.0000
 8254,0.00005222,-0.00001711,-0.00086438,0.00067382,0.00146148,-0.00169
 919,0.00761465,0.00236620,-0.00129871,-0.00020303,-0.00075340,0.000095
 04,-0.00012123,-0.00018906,0.00002844,0.00002901,-0.00001907,0.0000036
 9,-0.00000910,0.00000948,-0.00002683,0.00000233,0.00000160,-0.00059949
 ,-0.00038262,0.00013300,0.00070717,0.00055089,-0.00035140,-0.00013342,
 -0.00009900,-0.00009977,0.00004599,-0.00009355,-0.00000590,0.05357347,
 -0.08554691,-0.06331573,0.01136026,-0.01770975,-0.01459848,-0.06243175
 ,0.09565697,-0.00040566,-0.00049080,0.00008041,-0.00023878,0.00067058,
 0.00013506,-0.00000256,-0.00128447,-0.00014967,0.00076683,-0.00070672,
 -0.00052277,-0.00016909,0.00064293,0.00012132,0.00060955,-0.00008775,-
 0.00018746,0.00000397,-0.00000061,-0.00000208,0.00001548,-0.00000053,-
 0.00000846,-0.00002295,0.00001198,-0.00000988,-0.00000192,-0.00001174,
 -0.00000111,-0.00506097,-0.00249223,-0.00160462,-0.00067243,0.00155722
 ,0.00026109,-0.00803093,0.00243133,-0.02085697,-0.00009995,-0.00002877
 ,-0.00001704,0.00184650,-0.00030279,-0.00168070,-0.00001082,0.00004398
 ,-0.00005996,0.00547997,0.00089360,0.00154294,-0.00000953,-0.00001406,
 0.00002207,-0.00090569,0.00774565,-0.00415290,0.00730470,-0.01174651,-
 0.00241794,0.00263006,-0.00065789,0.00325499,-0.00096097,-0.00064400,0
 .00022200,0.00015087,-0.00005720,-0.00014587,0.00001519,0.00020780,-0.
 00009847,0.00014219,0.00006785,0.00009887,0.00044053,-0.00099285,-0.00
 030536,0.00006080,0.00044539,0.00023410,0.00002738,0.00007757,0.000232
 32,0.00007693,0.00016901,-0.00002641,0.08027998,-0.06031342,-0.1031176
 8,0.00327944,-0.00583154,0.00290671,-0.08653976,0.07069929,0.12625169\
 \0.00000334,0.00000461,0.00000090,0.00000132,0.00000465,-0.00000221,0.
 00000099,0.00000448,-0.00000286,0.00000179,0.00000311,0.00000016,0.000
 00399,0.00000153,0.00000293,0.00000467,0.00000395,0.00000386,0.0000041
 3,0.00000518,0.00000146,0.00000047,0.00000589,-0.00000411,0.00000481,0
 .00000132,0.00000507,0.00000627,0.00000251,0.00000597,0.00000093,0.000
 00373,-0.00000068,-0.00000127,0.00000361,-0.00000602,-0.00000047,0.000
 00152,-0.00000353,-0.00000156,0.00000269,-0.00000470,-0.00000401,0.000
 00368,-0.00000649,-0.00000403,0.00000454,-0.00000896,0.00000188,-0.000
 00046,0.00000135,-0.00000327,0.00000596,-0.00000914,-0.00000113,-0.000
 00558,0.00000313,-0.00000126,-0.00000227,-0.00000116,-0.00000352,-0.00
 000395,-0.00000121,0.00000063,-0.00000454,0.00000469,0.00000059,-0.000
 00379,0.00000395,0.00000306,-0.00000318,0.00000677,0.00000018,-0.00000
 756,0.00000639,-0.00000105,-0.00000552,0.00000412,-0.00000104,-0.00000
 456,0.00000204,-0.00000205,-0.00000817,0.00000405,0.00000128,-0.000004
 52,0.00000575,-0.00000569,-0.00000259,-0.00000348,-0.00000585,-0.00000
 293,-0.00000532,-0.00000412,-0.00000336,-0.00000272\\\@


 E PUR SI MUOVE    -- GALILEO GALILEI
 Job cpu time:       0 days  0 hours  0 minutes 43.3 seconds.
 File lengths (MBytes):  RWF=    157 Int=      0 D2E=      0 Chk=      9 Scr=      1
 Normal termination of Gaussian 09 at Thu Aug 20 21:24:46 2020.
