 Entering Gaussian System, Link 0=g09
 Input=pr_claisen_PM6_toluene_water.com
 Output=pr_claisen_PM6_toluene_water.log
 Initial command:
 /apps/applications/gaussian/G09.D01/2/default/g09/l1.exe "/local/707031.1.40core-192G.q/Gau-372999.inp" -scrdir="/local/707031.1.40core-192G.q/"
 Entering Link 1 = /apps/applications/gaussian/G09.D01/2/default/g09/l1.exe PID=    373000.
  
 Copyright (c) 1988,1990,1992,1993,1995,1998,2003,2009,2013,
            Gaussian, Inc.  All Rights Reserved.
  
 This is part of the Gaussian(R) 09 program.  It is based on
 the Gaussian(R) 03 system (copyright 2003, Gaussian, Inc.),
 the Gaussian(R) 98 system (copyright 1998, Gaussian, Inc.),
 the Gaussian(R) 94 system (copyright 1995, Gaussian, Inc.),
 the Gaussian 92(TM) system (copyright 1992, Gaussian, Inc.),
 the Gaussian 90(TM) system (copyright 1990, Gaussian, Inc.),
 the Gaussian 88(TM) system (copyright 1988, Gaussian, Inc.),
 the Gaussian 86(TM) system (copyright 1986, Carnegie Mellon
 University), and the Gaussian 82(TM) system (copyright 1983,
 Carnegie Mellon University). Gaussian is a federally registered
 trademark of Gaussian, Inc.
  
 This software contains proprietary and confidential information,
 including trade secrets, belonging to Gaussian, Inc.
  
 This software is provided under written license and may be
 used, copied, transmitted, or stored only in accord with that
 written license.
  
 The following legend is applicable only to US Government
 contracts under FAR:
  
                    RESTRICTED RIGHTS LEGEND
  
 Use, reproduction and disclosure by the US Government is
 subject to restrictions as set forth in subparagraphs (a)
 and (c) of the Commercial Computer Software - Restricted
 Rights clause in FAR 52.227-19.
  
 Gaussian, Inc.
 340 Quinnipiac St., Bldg. 40, Wallingford CT 06492
  
  
 ---------------------------------------------------------------
 Warning -- This program may not be used in any manner that
 competes with the business of Gaussian, Inc. or will provide
 assistance to any competitor of Gaussian, Inc.  The licensee
 of this program is prohibited from giving any competitor of
 Gaussian, Inc. access to this program.  By using this program,
 the user acknowledges that Gaussian, Inc. is engaged in the
 business of creating and licensing software in the field of
 computational chemistry and represents and warrants to the
 licensee that it is not a competitor of Gaussian, Inc. and that
 it will not use this program in any manner prohibited above.
 ---------------------------------------------------------------
  

 Cite this work as:
 Gaussian 09, Revision D.01,
 M. J. Frisch, G. W. Trucks, H. B. Schlegel, G. E. Scuseria, 
 M. A. Robb, J. R. Cheeseman, G. Scalmani, V. Barone, B. Mennucci, 
 G. A. Petersson, H. Nakatsuji, M. Caricato, X. Li, H. P. Hratchian, 
 A. F. Izmaylov, J. Bloino, G. Zheng, J. L. Sonnenberg, M. Hada, 
 M. Ehara, K. Toyota, R. Fukuda, J. Hasegawa, M. Ishida, T. Nakajima, 
 Y. Honda, O. Kitao, H. Nakai, T. Vreven, J. A. Montgomery, Jr., 
 J. E. Peralta, F. Ogliaro, M. Bearpark, J. J. Heyd, E. Brothers, 
 K. N. Kudin, V. N. Staroverov, T. Keith, R. Kobayashi, J. Normand, 
 K. Raghavachari, A. Rendell, J. C. Burant, S. S. Iyengar, J. Tomasi, 
 M. Cossi, N. Rega, J. M. Millam, M. Klene, J. E. Knox, J. B. Cross, 
 V. Bakken, C. Adamo, J. Jaramillo, R. Gomperts, R. E. Stratmann, 
 O. Yazyev, A. J. Austin, R. Cammi, C. Pomelli, J. W. Ochterski, 
 R. L. Martin, K. Morokuma, V. G. Zakrzewski, G. A. Voth, 
 P. Salvador, J. J. Dannenberg, S. Dapprich, A. D. Daniels, 
 O. Farkas, J. B. Foresman, J. V. Ortiz, J. Cioslowski, 
 and D. J. Fox, Gaussian, Inc., Wallingford CT, 2013.
 
 ******************************************
 Gaussian 09:  ES64L-G09RevD.01 24-Apr-2013
                20-Aug-2020 
 ******************************************
 %nprocshared=4
 Will use up to    4 processors via shared memory.
 %chk=pr_claisen_PM6_toluene_water.chk
 ----------------------------------------------------------------------
 # opt freq pm6 scrf=(cpcm,solvent=water) geom=connectivity empiricaldi
 spersion=gd3
 ----------------------------------------------------------------------
 1/14=-1,18=20,19=15,26=1,38=1,57=2/1,3;
 2/9=110,12=2,17=6,18=5,40=1/2;
 3/5=2,16=1,25=1,41=3900000,70=2101,71=1,72=1,124=31/1,2,3;
 4/35=1/1;
 5/5=2,35=1,38=5,53=1/2;
 6/7=2,8=2,9=2,10=2,28=1/1;
 7//1,2,3,16;
 1/14=-1,18=20,19=15,26=1/3(2);
 2/9=110/2;
 99//99;
 2/9=110/2;
 3/5=2,16=1,25=1,41=3900000,70=2105,71=1,72=1,124=31,135=20/1,2,3;
 4/5=5,16=3,35=1/1;
 5/5=2,35=1,38=5,53=1/2;
 7//1,2,3,16;
 1/14=-1,18=20,19=15,26=1/3(-5);
 2/9=110/2;
 6/7=2,8=2,9=2,10=2,19=2,28=1/1;
 99/9=1/99;
 -------------------
 Title Card Required
 -------------------
 Symbolic Z-matrix:
 Charge =  0 Multiplicity = 1
 C                     4.19038  -1.08103   0.1535 
 C                     3.50465   0.13347   0.07402 
 C                     2.10626   0.14624  -0.04455 
 C                     1.40273  -1.07861  -0.08164 
 C                     2.10544  -2.29161  -0.00194 
 C                     3.49493  -2.29474   0.1157 
 H                     5.27843  -1.0815    0.24566 
 H                     4.07426   1.06324   0.10687 
 H                     1.54798  -3.2329   -0.03389 
 H                     4.03698  -3.23834   0.17747 
 C                    -0.07815  -1.11976  -0.20307 
 C                     1.32972   1.38561  -0.13042 
 C                    -0.85438   0.19448  -0.19579 
 C                    -0.00902   1.42725  -0.19626 
 H                    -0.56402   2.36828  -0.25078 
 O                    -0.67865  -2.17399  -0.31408 
 Cl                    2.217     2.8699   -0.1477 
 C                    -4.15773   0.02712   0.06444 
 C                    -3.17004   0.75944   0.60665 
 H                    -3.2934    1.82622   0.78182 
 C                    -5.46866   0.65192  -0.30464 
 H                    -6.31303   0.09824   0.12923 
 H                    -5.55964   1.69216   0.03285 
 H                    -5.61286   0.65395  -1.39457 
 C                    -4.05391  -1.43953  -0.20647 
 H                    -3.01361  -1.77559  -0.35516 
 H                    -4.45486  -2.02223   0.63541 
 H                    -4.61297  -1.74025  -1.10121 
 C                    -1.8353    0.21265   1.00742 
 H                    -1.40597   0.80856   1.838 
 H                    -1.94549  -0.81449   1.41932 
 H                    -1.46305   0.20074  -1.14921 
 

 GradGradGradGradGradGradGradGradGradGradGradGradGradGradGradGradGradGrad
 Berny optimization.
 Initialization pass.
                           ----------------------------
                           !    Initial Parameters    !
                           ! (Angstroms and Degrees)  !
 --------------------------                            --------------------------
 ! Name  Definition              Value          Derivative Info.                !
 --------------------------------------------------------------------------------
 ! R1    R(1,2)                  1.397          estimate D2E/DX2                !
 ! R2    R(1,6)                  1.3993         estimate D2E/DX2                !
 ! R3    R(1,7)                  1.0919         estimate D2E/DX2                !
 ! R4    R(2,3)                  1.4035         estimate D2E/DX2                !
 ! R5    R(2,8)                  1.0909         estimate D2E/DX2                !
 ! R6    R(3,4)                  1.413          estimate D2E/DX2                !
 ! R7    R(3,12)                 1.4651         estimate D2E/DX2                !
 ! R8    R(4,5)                  1.4041         estimate D2E/DX2                !
 ! R9    R(4,11)                 1.4864         estimate D2E/DX2                !
 ! R10   R(5,6)                  1.3945         estimate D2E/DX2                !
 ! R11   R(5,9)                  1.0945         estimate D2E/DX2                !
 ! R12   R(6,10)                 1.09           estimate D2E/DX2                !
 ! R13   R(11,13)                1.5264         estimate D2E/DX2                !
 ! R14   R(11,16)                1.2183         estimate D2E/DX2                !
 ! R15   R(12,14)                1.341          estimate D2E/DX2                !
 ! R16   R(12,17)                1.7294         estimate D2E/DX2                !
 ! R17   R(13,14)                1.4948         estimate D2E/DX2                !
 ! R18   R(13,29)                1.5525         estimate D2E/DX2                !
 ! R19   R(13,32)                1.1312         estimate D2E/DX2                !
 ! R20   R(14,15)                1.0939         estimate D2E/DX2                !
 ! R21   R(18,19)                1.3438         estimate D2E/DX2                !
 ! R22   R(18,21)                1.4984         estimate D2E/DX2                !
 ! R23   R(18,25)                1.4951         estimate D2E/DX2                !
 ! R24   R(19,20)                1.0881         estimate D2E/DX2                !
 ! R25   R(19,29)                1.497          estimate D2E/DX2                !
 ! R26   R(21,22)                1.099          estimate D2E/DX2                !
 ! R27   R(21,23)                1.0974         estimate D2E/DX2                !
 ! R28   R(21,24)                1.0994         estimate D2E/DX2                !
 ! R29   R(25,26)                1.1033         estimate D2E/DX2                !
 ! R30   R(25,27)                1.0996         estimate D2E/DX2                !
 ! R31   R(25,28)                1.0971         estimate D2E/DX2                !
 ! R32   R(29,30)                1.1087         estimate D2E/DX2                !
 ! R33   R(29,31)                1.1121         estimate D2E/DX2                !
 ! A1    A(2,1,6)              120.5678         estimate D2E/DX2                !
 ! A2    A(2,1,7)              119.6227         estimate D2E/DX2                !
 ! A3    A(6,1,7)              119.8095         estimate D2E/DX2                !
 ! A4    A(1,2,3)              120.1196         estimate D2E/DX2                !
 ! A5    A(1,2,8)              118.879          estimate D2E/DX2                !
 ! A6    A(3,2,8)              121.0014         estimate D2E/DX2                !
 ! A7    A(2,3,4)              119.3685         estimate D2E/DX2                !
 ! A8    A(2,3,12)             122.736          estimate D2E/DX2                !
 ! A9    A(4,3,12)             117.8954         estimate D2E/DX2                !
 ! A10   A(3,4,5)              119.8799         estimate D2E/DX2                !
 ! A11   A(3,4,11)             121.4787         estimate D2E/DX2                !
 ! A12   A(5,4,11)             118.6413         estimate D2E/DX2                !
 ! A13   A(4,5,6)              120.3588         estimate D2E/DX2                !
 ! A14   A(4,5,9)              119.1061         estimate D2E/DX2                !
 ! A15   A(6,5,9)              120.5351         estimate D2E/DX2                !
 ! A16   A(1,6,5)              119.7053         estimate D2E/DX2                !
 ! A17   A(1,6,10)             120.1449         estimate D2E/DX2                !
 ! A18   A(5,6,10)             120.1498         estimate D2E/DX2                !
 ! A19   A(4,11,13)            118.8438         estimate D2E/DX2                !
 ! A20   A(4,11,16)            121.4969         estimate D2E/DX2                !
 ! A21   A(13,11,16)           119.6583         estimate D2E/DX2                !
 ! A22   A(3,12,14)            123.9372         estimate D2E/DX2                !
 ! A23   A(3,12,17)            117.0463         estimate D2E/DX2                !
 ! A24   A(14,12,17)           119.0165         estimate D2E/DX2                !
 ! A25   A(11,13,14)           114.9923         estimate D2E/DX2                !
 ! A26   A(11,13,29)           109.5781         estimate D2E/DX2                !
 ! A27   A(11,13,32)           105.9251         estimate D2E/DX2                !
 ! A28   A(14,13,29)           110.3605         estimate D2E/DX2                !
 ! A29   A(14,13,32)           107.4267         estimate D2E/DX2                !
 ! A30   A(29,13,32)           108.2513         estimate D2E/DX2                !
 ! A31   A(12,14,13)           122.6133         estimate D2E/DX2                !
 ! A32   A(12,14,15)           122.3893         estimate D2E/DX2                !
 ! A33   A(13,14,15)           114.9971         estimate D2E/DX2                !
 ! A34   A(19,18,21)           121.0108         estimate D2E/DX2                !
 ! A35   A(19,18,25)           123.8257         estimate D2E/DX2                !
 ! A36   A(21,18,25)           115.1619         estimate D2E/DX2                !
 ! A37   A(18,19,20)           121.0584         estimate D2E/DX2                !
 ! A38   A(18,19,29)           124.3528         estimate D2E/DX2                !
 ! A39   A(20,19,29)           114.5876         estimate D2E/DX2                !
 ! A40   A(18,21,22)           111.4003         estimate D2E/DX2                !
 ! A41   A(18,21,23)           113.0819         estimate D2E/DX2                !
 ! A42   A(18,21,24)           111.0829         estimate D2E/DX2                !
 ! A43   A(22,21,23)           107.0051         estimate D2E/DX2                !
 ! A44   A(22,21,24)           106.95           estimate D2E/DX2                !
 ! A45   A(23,21,24)           106.9928         estimate D2E/DX2                !
 ! A46   A(18,25,26)           112.874          estimate D2E/DX2                !
 ! A47   A(18,25,27)           110.8427         estimate D2E/DX2                !
 ! A48   A(18,25,28)           112.4144         estimate D2E/DX2                !
 ! A49   A(26,25,27)           106.5944         estimate D2E/DX2                !
 ! A50   A(26,25,28)           106.6833         estimate D2E/DX2                !
 ! A51   A(27,25,28)           107.0591         estimate D2E/DX2                !
 ! A52   A(13,29,19)           111.1086         estimate D2E/DX2                !
 ! A53   A(13,29,30)           110.0114         estimate D2E/DX2                !
 ! A54   A(13,29,31)           109.8061         estimate D2E/DX2                !
 ! A55   A(19,29,30)           110.4558         estimate D2E/DX2                !
 ! A56   A(19,29,31)           110.3743         estimate D2E/DX2                !
 ! A57   A(30,29,31)           104.9101         estimate D2E/DX2                !
 ! D1    D(6,1,2,3)              0.018          estimate D2E/DX2                !
 ! D2    D(6,1,2,8)            179.9548         estimate D2E/DX2                !
 ! D3    D(7,1,2,3)           -179.9955         estimate D2E/DX2                !
 ! D4    D(7,1,2,8)             -0.0586         estimate D2E/DX2                !
 ! D5    D(2,1,6,5)             -0.0187         estimate D2E/DX2                !
 ! D6    D(2,1,6,10)           179.9538         estimate D2E/DX2                !
 ! D7    D(7,1,6,5)            179.9948         estimate D2E/DX2                !
 ! D8    D(7,1,6,10)            -0.0327         estimate D2E/DX2                !
 ! D9    D(1,2,3,4)              0.0383         estimate D2E/DX2                !
 ! D10   D(1,2,3,12)           179.9199         estimate D2E/DX2                !
 ! D11   D(8,2,3,4)           -179.8972         estimate D2E/DX2                !
 ! D12   D(8,2,3,12)            -0.0156         estimate D2E/DX2                !
 ! D13   D(2,3,4,5)             -0.0937         estimate D2E/DX2                !
 ! D14   D(2,3,4,11)           179.8592         estimate D2E/DX2                !
 ! D15   D(12,3,4,5)          -179.981          estimate D2E/DX2                !
 ! D16   D(12,3,4,11)           -0.0281         estimate D2E/DX2                !
 ! D17   D(2,3,12,14)         -177.5287         estimate D2E/DX2                !
 ! D18   D(2,3,12,17)            2.5305         estimate D2E/DX2                !
 ! D19   D(4,3,12,14)            2.3545         estimate D2E/DX2                !
 ! D20   D(4,3,12,17)         -177.5863         estimate D2E/DX2                !
 ! D21   D(3,4,5,6)              0.0939         estimate D2E/DX2                !
 ! D22   D(3,4,5,9)           -179.8774         estimate D2E/DX2                !
 ! D23   D(11,4,5,6)          -179.8604         estimate D2E/DX2                !
 ! D24   D(11,4,5,9)             0.1683         estimate D2E/DX2                !
 ! D25   D(3,4,11,13)           -4.0076         estimate D2E/DX2                !
 ! D26   D(3,4,11,16)          175.6264         estimate D2E/DX2                !
 ! D27   D(5,4,11,13)          175.9459         estimate D2E/DX2                !
 ! D28   D(5,4,11,16)           -4.4201         estimate D2E/DX2                !
 ! D29   D(4,5,6,1)             -0.0375         estimate D2E/DX2                !
 ! D30   D(4,5,6,10)           179.99           estimate D2E/DX2                !
 ! D31   D(9,5,6,1)            179.9333         estimate D2E/DX2                !
 ! D32   D(9,5,6,10)            -0.0392         estimate D2E/DX2                !
 ! D33   D(4,11,13,14)           5.6505         estimate D2E/DX2                !
 ! D34   D(4,11,13,29)        -119.3239         estimate D2E/DX2                !
 ! D35   D(4,11,13,32)         124.1152         estimate D2E/DX2                !
 ! D36   D(16,11,13,14)       -173.9904         estimate D2E/DX2                !
 ! D37   D(16,11,13,29)         61.0352         estimate D2E/DX2                !
 ! D38   D(16,11,13,32)        -55.5257         estimate D2E/DX2                !
 ! D39   D(3,12,14,13)          -0.3338         estimate D2E/DX2                !
 ! D40   D(3,12,14,15)         179.4416         estimate D2E/DX2                !
 ! D41   D(17,12,14,13)        179.6059         estimate D2E/DX2                !
 ! D42   D(17,12,14,15)         -0.6187         estimate D2E/DX2                !
 ! D43   D(11,13,14,12)         -3.6634         estimate D2E/DX2                !
 ! D44   D(11,13,14,15)        176.5459         estimate D2E/DX2                !
 ! D45   D(29,13,14,12)        120.9015         estimate D2E/DX2                !
 ! D46   D(29,13,14,15)        -58.8892         estimate D2E/DX2                !
 ! D47   D(32,13,14,12)       -121.2837         estimate D2E/DX2                !
 ! D48   D(32,13,14,15)         58.9256         estimate D2E/DX2                !
 ! D49   D(11,13,29,19)       -137.2979         estimate D2E/DX2                !
 ! D50   D(11,13,29,30)        100.067          estimate D2E/DX2                !
 ! D51   D(11,13,29,31)        -14.9075         estimate D2E/DX2                !
 ! D52   D(14,13,29,19)         95.0914         estimate D2E/DX2                !
 ! D53   D(14,13,29,30)        -27.5437         estimate D2E/DX2                !
 ! D54   D(14,13,29,31)       -142.5182         estimate D2E/DX2                !
 ! D55   D(32,13,29,19)        -22.2149         estimate D2E/DX2                !
 ! D56   D(32,13,29,30)       -144.8501         estimate D2E/DX2                !
 ! D57   D(32,13,29,31)        100.1755         estimate D2E/DX2                !
 ! D58   D(21,18,19,20)         -0.6406         estimate D2E/DX2                !
 ! D59   D(21,18,19,29)        179.7729         estimate D2E/DX2                !
 ! D60   D(25,18,19,20)        179.8231         estimate D2E/DX2                !
 ! D61   D(25,18,19,29)          0.2366         estimate D2E/DX2                !
 ! D62   D(19,18,21,22)       -128.064          estimate D2E/DX2                !
 ! D63   D(19,18,21,23)         -7.5026         estimate D2E/DX2                !
 ! D64   D(19,18,21,24)        112.8135         estimate D2E/DX2                !
 ! D65   D(25,18,21,22)         51.5104         estimate D2E/DX2                !
 ! D66   D(25,18,21,23)        172.0718         estimate D2E/DX2                !
 ! D67   D(25,18,21,24)        -67.6121         estimate D2E/DX2                !
 ! D68   D(19,18,25,26)        -25.8127         estimate D2E/DX2                !
 ! D69   D(19,18,25,27)         93.6786         estimate D2E/DX2                !
 ! D70   D(19,18,25,28)       -146.547          estimate D2E/DX2                !
 ! D71   D(21,18,25,26)        154.6264         estimate D2E/DX2                !
 ! D72   D(21,18,25,27)        -85.8823         estimate D2E/DX2                !
 ! D73   D(21,18,25,28)         33.8921         estimate D2E/DX2                !
 ! D74   D(18,19,29,13)         85.688          estimate D2E/DX2                !
 ! D75   D(18,19,29,30)       -151.9339         estimate D2E/DX2                !
 ! D76   D(18,19,29,31)        -36.3727         estimate D2E/DX2                !
 ! D77   D(20,19,29,13)        -93.9224         estimate D2E/DX2                !
 ! D78   D(20,19,29,30)         28.4557         estimate D2E/DX2                !
 ! D79   D(20,19,29,31)        144.0169         estimate D2E/DX2                !
 --------------------------------------------------------------------------------
 Trust Radius=3.00D-01 FncErr=1.00D-07 GrdErr=1.00D-07
 Number of steps in this run=    179 maximum allowed number of steps=    192.
 GradGradGradGradGradGradGradGradGradGradGradGradGradGradGradGradGradGrad

                          Input orientation:                          
 ---------------------------------------------------------------------
 Center     Atomic      Atomic             Coordinates (Angstroms)
 Number     Number       Type             X           Y           Z
 ---------------------------------------------------------------------
      1          6           0        4.190380   -1.081029    0.153498
      2          6           0        3.504651    0.133474    0.074020
      3          6           0        2.106262    0.146244   -0.044550
      4          6           0        1.402729   -1.078612   -0.081635
      5          6           0        2.105441   -2.291607   -0.001936
      6          6           0        3.494929   -2.294740    0.115695
      7          1           0        5.278427   -1.081496    0.245662
      8          1           0        4.074261    1.063244    0.106865
      9          1           0        1.547980   -3.232904   -0.033887
     10          1           0        4.036977   -3.238339    0.177470
     11          6           0       -0.078146   -1.119763   -0.203070
     12          6           0        1.329722    1.385614   -0.130422
     13          6           0       -0.854379    0.194483   -0.195787
     14          6           0       -0.009024    1.427249   -0.196263
     15          1           0       -0.564015    2.368284   -0.250784
     16          8           0       -0.678648   -2.173990   -0.314075
     17         17           0        2.216996    2.869903   -0.147701
     18          6           0       -4.157733    0.027124    0.064443
     19          6           0       -3.170041    0.759438    0.606652
     20          1           0       -3.293404    1.826215    0.781818
     21          6           0       -5.468657    0.651918   -0.304640
     22          1           0       -6.313031    0.098243    0.129228
     23          1           0       -5.559637    1.692160    0.032848
     24          1           0       -5.612859    0.653951   -1.394571
     25          6           0       -4.053910   -1.439531   -0.206467
     26          1           0       -3.013614   -1.775591   -0.355162
     27          1           0       -4.454861   -2.022230    0.635406
     28          1           0       -4.612966   -1.740254   -1.101213
     29          6           0       -1.835304    0.212651    1.007418
     30          1           0       -1.405973    0.808555    1.837997
     31          1           0       -1.945491   -0.814489    1.419320
     32          1           0       -1.463048    0.200736   -1.149212
 ---------------------------------------------------------------------
                    Distance matrix (angstroms):
                    1          2          3          4          5
     1  C    0.000000
     2  C    1.396982   0.000000
     3  C    2.426720   1.403465   0.000000
     4  C    2.797551   2.431349   1.413013   0.000000
     5  C    2.415912   2.800817   2.438224   1.404106   0.000000
     6  C    1.399348   2.428591   2.812913   2.428005   1.394462
     7  H    1.091944   2.156825   3.413825   3.889494   3.404925
     8  H    2.147921   1.090874   2.176427   3.429309   3.891416
     9  H    3.412910   3.895216   3.424972   2.159711   1.094451
    10  H    2.162890   3.415142   3.902865   3.416258   2.158546
    11  C    4.283568   3.805761   2.529731   1.486415   2.486308
    12  C    3.787915   2.517929   1.465069   2.465790   3.760346
    13  C    5.215220   4.367798   2.964894   2.593904   3.870240
    14  C    4.903956   3.754040   2.477585   2.878459   4.282361
    15  H    5.887739   4.653377   3.479996   3.972126   5.376105
    16  O    5.012048   4.793224   3.634811   2.363474   2.804000
    17  Cl   4.426605   3.032369   2.727860   4.032142   5.164773
    18  C    8.421812   7.663128   6.266076   5.671219   6.678942
    19  C    7.600557   6.725105   5.351583   4.976182   6.124538
    20  H    8.053190   7.041300   5.715031   5.589028   6.835075
    21  C    9.823950   8.996245   7.596233   7.089458   8.131601
    22  H   10.569433   9.817900   8.421223   7.807842   8.752100
    23  H   10.137454   9.197419   7.820604   7.494319   8.638578
    24  H   10.075225   9.249683   7.852716   7.344661   8.377822
    25  C    8.259928   7.725598   6.363067   5.469987   6.221372
    26  H    7.255252   6.805623   5.477505   4.479362   5.157108
    27  H    8.709666   8.265352   6.943555   5.976280   6.596691
    28  H    8.916713   8.413545   7.058572   6.137255   6.830036
    29  C    6.221869   5.421496   4.080072   3.652157   4.776984
    30  H    6.142250   5.261328   4.039608   3.890398   5.032533
    31  H    6.270747   5.693199   4.413913   3.678750   4.540033
    32  H    5.941483   5.116528   3.736739   3.314986   4.501348
                    6          7          8          9         10
     6  C    0.000000
     7  H    2.160953   0.000000
     8  H    3.407603   2.463573   0.000000
     9  H    2.166365   4.315430   4.985859   0.000000
    10  H    1.089959   2.489542   4.302324   2.497961   0.000000
    11  C    3.774791   5.375472   4.701496   2.671755   4.644073
    12  C    4.277114   4.671225   2.773576   4.624680   5.367026
    13  C    5.020929   6.279674   5.013765   4.188618   5.987399
    14  C    5.121348   5.869092   4.110669   4.916061   6.186882
    15  H    6.192990   6.803056   4.831630   5.990065   7.265449
    16  O    4.197383   6.082236   5.766023   2.481467   4.859174
    17  Cl   5.326915   5.014045   2.603508   6.140423   6.381903
    18  C    7.997307   9.502789   8.297052   6.572109   8.822091
    19  C    7.347848   8.654245   7.267874   6.213599   8.252728
    20  H    7.969156   9.067444   7.437753   7.049756   8.930254
    21  C    9.444858  10.899879   9.560639   8.024858  10.282199
    22  H   10.095674  11.651920  10.432045   8.539241  10.874639
    23  H    9.893806  11.189374   9.654688   8.647481  10.790076
    24  H    9.691619  11.149989   9.811326   8.260552  10.523335
    25  C    7.603956   9.350140   8.510536   5.884483   8.297323
    26  H    6.546171   8.342703   7.649211   4.799491   7.220399
    27  H    7.971419   9.786408   9.085451   6.160177   8.590689
    28  H    8.217438  10.004384   9.207984   6.428409   8.871347
    29  C    5.957647   7.270506   6.038002   4.939917   6.861620
    30  H    6.051083   7.126642   5.752795   5.344453   6.982865
    31  H    5.786947   7.323507   6.440950   4.490532   6.573216
    32  H    5.692884   7.002662   5.743121   4.701077   6.620997
                   11         12         13         14         15
    11  C    0.000000
    12  C    2.874767   0.000000
    13  C    1.526379   2.488647   0.000000
    14  C    2.547959   1.341011   1.494770   0.000000
    15  H    3.522047   2.136906   2.193797   1.093862   0.000000
    16  O    1.218326   4.091217   2.377927   3.664860   4.544161
    17  Cl   4.603062   1.729355   4.073516   2.653069   2.827768
    18  C    4.246168   5.656468   3.317812   4.386354   4.300605
    19  C    3.707676   4.602526   2.515029   3.329065   3.180401
    20  H    4.470646   4.732822   3.093074   3.450068   2.968109
    21  C    5.675102   6.840074   4.638174   5.515476   5.196569
    22  H    6.361427   7.754767   5.469166   6.450791   6.192631
    23  H    6.165169   6.898108   4.943153   5.561652   5.049142
    24  H    5.932856   7.094564   4.928623   5.782465   5.453257
    25  C    3.988604   6.080355   3.592647   4.957785   5.165345
    26  H    3.011680   5.376643   2.927266   4.394428   4.814886
    27  H    4.546771   6.757314   4.309080   5.688237   5.933012
    28  H    4.664361   6.784470   4.323191   5.661121   5.830722
    29  C    2.515594   3.562009   1.552497   2.501878   2.801072
    30  H    3.106041   3.419312   2.194907   2.544103   2.739462
    31  H    2.492452   4.239006   2.194794   3.374226   3.850684
    32  H    2.134679   3.200224   1.131166   2.127588   2.512707
                   16         17         18         19         20
    16  O    0.000000
    17  Cl   5.818358   0.000000
    18  C    4.134273   6.983092   0.000000
    19  C    3.957244   5.834662   1.343804   0.000000
    20  H    4.903016   5.684875   2.120948   1.088078   0.000000
    21  C    5.561477   8.000834   1.498370   2.475005   2.700202
    22  H    6.091456   8.973302   2.157444   3.247075   3.539761
    23  H    6.236307   7.867382   2.176850   2.628572   2.390552
    24  H    5.788882   8.232360   2.153840   3.159649   3.389800
    25  C    3.455923   7.609135   1.495075   2.505564   3.495736
    26  H    2.369067   6.998781   2.175973   2.715866   3.787349
    27  H    3.896708   8.310228   2.148054   3.064191   4.022555
    28  H    4.035662   8.295246   2.165552   3.353699   4.243436
    29  C    2.963149   4.981609   2.513424   1.497034   2.186445
    30  H    3.749132   4.617148   3.365756   2.151873   2.390302
    31  H    2.541219   5.775517   2.727273   2.153415   3.032589
    32  H    2.636676   4.655126   2.960477   2.511779   3.117894
                   21         22         23         24         25
    21  C    0.000000
    22  H    1.098984   0.000000
    23  H    1.097396   1.765634   0.000000
    24  H    1.099431   1.766640   1.765853   0.000000
    25  C    2.526916   2.753374   3.483098   2.867853   0.000000
    26  H    3.452910   3.825185   4.319500   3.706632   1.103296
    27  H    3.010405   2.864510   3.921772   3.552986   1.099568
    28  H    2.662559   2.790032   3.736810   2.611142   1.097064
    29  C    3.887892   4.564466   4.124244   4.498246   3.020833
    30  H    4.595740   5.244393   4.614352   5.307663   4.030545
    31  H    4.187492   4.644655   4.611686   4.850143   2.734829
    32  H    4.118467   5.016697   4.517040   4.181691   3.208085
                   26         27         28         29         30
    26  H    0.000000
    27  H    1.766139   0.000000
    28  H    1.765154   1.766452   0.000000
    29  C    2.682936   3.463404   3.996945   0.000000
    30  H    3.751302   4.330737   5.041844   1.108733   0.000000
    31  H    2.283285   2.893112   3.784911   1.112125   1.760864
    32  H    2.634509   4.132479   3.700234   2.188554   3.048954
                   31         32
    31  H    0.000000
    32  H    2.803710   0.000000
 Stoichiometry    C15H15ClO
 Framework group  C1[X(C15H15ClO)]
 Deg. of freedom    90
 Full point group                 C1      NOp   1
 Largest Abelian subgroup         C1      NOp   1
 Largest concise Abelian subgroup C1      NOp   1
                         Standard orientation:                         
 ---------------------------------------------------------------------
 Center     Atomic      Atomic             Coordinates (Angstroms)
 Number     Number       Type             X           Y           Z
 ---------------------------------------------------------------------
      1          6           0        4.190380   -1.081029    0.153498
      2          6           0        3.504651    0.133474    0.074020
      3          6           0        2.106262    0.146244   -0.044550
      4          6           0        1.402729   -1.078612   -0.081635
      5          6           0        2.105441   -2.291607   -0.001936
      6          6           0        3.494929   -2.294740    0.115695
      7          1           0        5.278427   -1.081496    0.245662
      8          1           0        4.074261    1.063244    0.106865
      9          1           0        1.547980   -3.232904   -0.033887
     10          1           0        4.036977   -3.238339    0.177470
     11          6           0       -0.078146   -1.119763   -0.203070
     12          6           0        1.329722    1.385614   -0.130422
     13          6           0       -0.854379    0.194483   -0.195787
     14          6           0       -0.009024    1.427249   -0.196263
     15          1           0       -0.564015    2.368284   -0.250784
     16          8           0       -0.678648   -2.173990   -0.314075
     17         17           0        2.216996    2.869903   -0.147701
     18          6           0       -4.157733    0.027124    0.064443
     19          6           0       -3.170041    0.759438    0.606652
     20          1           0       -3.293404    1.826215    0.781818
     21          6           0       -5.468657    0.651918   -0.304640
     22          1           0       -6.313031    0.098243    0.129228
     23          1           0       -5.559637    1.692160    0.032848
     24          1           0       -5.612859    0.653951   -1.394571
     25          6           0       -4.053910   -1.439531   -0.206467
     26          1           0       -3.013614   -1.775591   -0.355162
     27          1           0       -4.454861   -2.022230    0.635406
     28          1           0       -4.612966   -1.740254   -1.101213
     29          6           0       -1.835304    0.212651    1.007418
     30          1           0       -1.405973    0.808555    1.837997
     31          1           0       -1.945491   -0.814489    1.419320
     32          1           0       -1.463048    0.200736   -1.149212
 ---------------------------------------------------------------------
 Rotational constants (GHZ):      0.7223619      0.2480985      0.1893919
 Standard basis: VSTO-6G (5D, 7F)
 There are    89 symmetry adapted cartesian basis functions of A   symmetry.
 There are    88 symmetry adapted basis functions of A   symmetry.
    88 basis functions,   534 primitive gaussians,    89 cartesian basis functions
    44 alpha electrons       44 beta electrons
       nuclear repulsion energy       626.8650139950 Hartrees.
 Integral buffers will be    131072 words long.
 Regular integral format.
 Two-electron integral symmetry is turned off.
 Nuclear repulsion after empirical dispersion term =      626.8553409007 Hartrees.
 ------------------------------------------------------------------------------
 Polarizable Continuum Model (PCM)
 =================================
 Model                : C-PCM.
 Atomic radii         : UFF (Universal Force Field).
 Polarization charges : Total charges.
 Charge compensation  : None.
 Solution method      : On-the-fly selection.
 Cavity type          : Scaled VdW (van der Waals Surface) (Alpha=1.100).
 Cavity algorithm     : GePol (No added spheres)
                        Default sphere list used, NSphG=   32.
                        Lebedev-Laikov grids with approx.  5.0 points / Ang**2.
                        Smoothing algorithm: Karplus/York (Gamma=1.0000).
                        Polarization charges: spherical gaussians, with
                                              point-specific exponents (IZeta= 3).
                        Self-potential: point-specific (ISelfS= 7).
                        Self-field    : sphere-specific E.n sum rule (ISelfD= 2).
 1st derivatives      : Analytical E(r).r(x)/FMM algorithm (CHGder, D1EAlg=3).
                        Cavity 1st derivative terms included.
 Solvent              : Water, Eps=  78.355300 Eps(inf)=   1.777849
 ------------------------------------------------------------------------------
 Do NDO integrals.
 One-electron integrals computed using PRISM.
 PrsmSu:  requested number of processors reduced to:   2 ShMem   1 Linda.
 NBasis=    88 RedAO= F EigKep=  0.00D+00  NBF=    88
 NBsUse=    88 1.00D-04 EigRej=  0.00D+00 NBFU=    88
 Nonelectrostatic core Hamiltonian diagonalized for initial guess.
 Overlap will be assumed to be unity.
 Keep J ints in memory in canonical form, NReq=10379583.
 Requested convergence on RMS density matrix=1.00D-08 within 128 cycles.
 Requested convergence on MAX density matrix=1.00D-06.
 Requested convergence on             energy=1.00D-06.
 No special actions if energy rises.
 Inv3:  Mode=1 IEnd=    17482188.
 Iteration    1 A*A^-1 deviation from unit magnitude is 6.66D-15 for   2412.
 Iteration    1 A*A^-1 deviation from orthogonality  is 2.18D-15 for   2409   1321.
 Iteration    1 A^-1*A deviation from unit magnitude is 6.44D-15 for   2412.
 Iteration    1 A^-1*A deviation from orthogonality  is 2.15D-15 for   2383    967.
 Error on total polarization charges = -0.00007
 SCF Done:  E(RPM6D3) = -0.415738590057E-01 A.U. after   20 cycles
            NFock= 19  Conv=0.43D-08     -V/T= 0.9993

 **********************************************************************

            Population analysis using the SCF density.

 **********************************************************************

 Orbital symmetries:
       Occupied  (A) (A) (A) (A) (A) (A) (A) (A) (A) (A) (A) (A)
                 (A) (A) (A) (A) (A) (A) (A) (A) (A) (A) (A) (A)
                 (A) (A) (A) (A) (A) (A) (A) (A) (A) (A) (A) (A)
                 (A) (A) (A) (A) (A) (A) (A) (A)
       Virtual   (A) (A) (A) (A) (A) (A) (A) (A) (A) (A) (A) (A)
                 (A) (A) (A) (A) (A) (A) (A) (A) (A) (A) (A) (A)
                 (A) (A) (A) (A) (A) (A) (A) (A) (A) (A) (A) (A)
                 (A) (A) (A) (A) (A) (A) (A) (A)
 The electronic state is 1-A.
 Alpha  occ. eigenvalues --   -1.18027  -1.12593  -1.09300  -1.05803  -1.01554
 Alpha  occ. eigenvalues --   -0.98795  -0.96995  -0.94058  -0.90434  -0.89926
 Alpha  occ. eigenvalues --   -0.83703  -0.82025  -0.79016  -0.76375  -0.67440
 Alpha  occ. eigenvalues --   -0.66868  -0.65762  -0.63150  -0.59692  -0.58371
 Alpha  occ. eigenvalues --   -0.57592  -0.57041  -0.55957  -0.55003  -0.54680
 Alpha  occ. eigenvalues --   -0.54211  -0.52376  -0.51975  -0.50703  -0.49828
 Alpha  occ. eigenvalues --   -0.49258  -0.47980  -0.47501  -0.46864  -0.46588
 Alpha  occ. eigenvalues --   -0.45697  -0.44453  -0.43872  -0.41717  -0.39585
 Alpha  occ. eigenvalues --   -0.38824  -0.37996  -0.35480  -0.34744
 Alpha virt. eigenvalues --   -0.04159  -0.01990   0.01805   0.02027   0.02464
 Alpha virt. eigenvalues --    0.04283   0.08032   0.08927   0.10770   0.11504
 Alpha virt. eigenvalues --    0.12974   0.13608   0.13859   0.14211   0.15193
 Alpha virt. eigenvalues --    0.15915   0.15954   0.16125   0.16689   0.17021
 Alpha virt. eigenvalues --    0.17429   0.17893   0.18783   0.19300   0.19590
 Alpha virt. eigenvalues --    0.19952   0.20177   0.20504   0.20776   0.20989
 Alpha virt. eigenvalues --    0.21106   0.21240   0.21516   0.21593   0.22334
 Alpha virt. eigenvalues --    0.22503   0.23373   0.24667   0.25219   3.22941
 Alpha virt. eigenvalues --    3.22974   3.23075   3.24196   3.24251
          Condensed to atoms (all electrons):
               1          2          3          4          5          6
     1  C    4.053440   0.000000   0.000000   0.000000   0.000000   0.000000
     2  C    0.000000   4.224052   0.000000   0.000000   0.000000   0.000000
     3  C    0.000000   0.000000   3.882661   0.000000   0.000000   0.000000
     4  C    0.000000   0.000000   0.000000   4.257862   0.000000   0.000000
     5  C    0.000000   0.000000   0.000000   0.000000   4.031939   0.000000
     6  C    0.000000   0.000000   0.000000   0.000000   0.000000   4.206708
     7  H    0.000000   0.000000   0.000000   0.000000   0.000000   0.000000
     8  H    0.000000   0.000000   0.000000   0.000000   0.000000   0.000000
     9  H    0.000000   0.000000   0.000000   0.000000   0.000000   0.000000
    10  H    0.000000   0.000000   0.000000   0.000000   0.000000   0.000000
    11  C    0.000000   0.000000   0.000000   0.000000   0.000000   0.000000
    12  C    0.000000   0.000000   0.000000   0.000000   0.000000   0.000000
    13  C    0.000000   0.000000   0.000000   0.000000   0.000000   0.000000
    14  C    0.000000   0.000000   0.000000   0.000000   0.000000   0.000000
    15  H    0.000000   0.000000   0.000000   0.000000   0.000000   0.000000
    16  O    0.000000   0.000000   0.000000   0.000000   0.000000   0.000000
    17  Cl   0.000000   0.000000   0.000000   0.000000   0.000000   0.000000
    18  C    0.000000   0.000000   0.000000   0.000000   0.000000   0.000000
    19  C    0.000000   0.000000   0.000000   0.000000   0.000000   0.000000
    20  H    0.000000   0.000000   0.000000   0.000000   0.000000   0.000000
    21  C    0.000000   0.000000   0.000000   0.000000   0.000000   0.000000
    22  H    0.000000   0.000000   0.000000   0.000000   0.000000   0.000000
    23  H    0.000000   0.000000   0.000000   0.000000   0.000000   0.000000
    24  H    0.000000   0.000000   0.000000   0.000000   0.000000   0.000000
    25  C    0.000000   0.000000   0.000000   0.000000   0.000000   0.000000
    26  H    0.000000   0.000000   0.000000   0.000000   0.000000   0.000000
    27  H    0.000000   0.000000   0.000000   0.000000   0.000000   0.000000
    28  H    0.000000   0.000000   0.000000   0.000000   0.000000   0.000000
    29  C    0.000000   0.000000   0.000000   0.000000   0.000000   0.000000
    30  H    0.000000   0.000000   0.000000   0.000000   0.000000   0.000000
    31  H    0.000000   0.000000   0.000000   0.000000   0.000000   0.000000
    32  H    0.000000   0.000000   0.000000   0.000000   0.000000   0.000000
               7          8          9         10         11         12
     1  C    0.000000   0.000000   0.000000   0.000000   0.000000   0.000000
     2  C    0.000000   0.000000   0.000000   0.000000   0.000000   0.000000
     3  C    0.000000   0.000000   0.000000   0.000000   0.000000   0.000000
     4  C    0.000000   0.000000   0.000000   0.000000   0.000000   0.000000
     5  C    0.000000   0.000000   0.000000   0.000000   0.000000   0.000000
     6  C    0.000000   0.000000   0.000000   0.000000   0.000000   0.000000
     7  H    0.840278   0.000000   0.000000   0.000000   0.000000   0.000000
     8  H    0.000000   0.821838   0.000000   0.000000   0.000000   0.000000
     9  H    0.000000   0.000000   0.835254   0.000000   0.000000   0.000000
    10  H    0.000000   0.000000   0.000000   0.829011   0.000000   0.000000
    11  C    0.000000   0.000000   0.000000   0.000000   3.435918   0.000000
    12  C    0.000000   0.000000   0.000000   0.000000   0.000000   4.057771
    13  C    0.000000   0.000000   0.000000   0.000000   0.000000   0.000000
    14  C    0.000000   0.000000   0.000000   0.000000   0.000000   0.000000
    15  H    0.000000   0.000000   0.000000   0.000000   0.000000   0.000000
    16  O    0.000000   0.000000   0.000000   0.000000   0.000000   0.000000
    17  Cl   0.000000   0.000000   0.000000   0.000000   0.000000   0.000000
    18  C    0.000000   0.000000   0.000000   0.000000   0.000000   0.000000
    19  C    0.000000   0.000000   0.000000   0.000000   0.000000   0.000000
    20  H    0.000000   0.000000   0.000000   0.000000   0.000000   0.000000
    21  C    0.000000   0.000000   0.000000   0.000000   0.000000   0.000000
    22  H    0.000000   0.000000   0.000000   0.000000   0.000000   0.000000
    23  H    0.000000   0.000000   0.000000   0.000000   0.000000   0.000000
    24  H    0.000000   0.000000   0.000000   0.000000   0.000000   0.000000
    25  C    0.000000   0.000000   0.000000   0.000000   0.000000   0.000000
    26  H    0.000000   0.000000   0.000000   0.000000   0.000000   0.000000
    27  H    0.000000   0.000000   0.000000   0.000000   0.000000   0.000000
    28  H    0.000000   0.000000   0.000000   0.000000   0.000000   0.000000
    29  C    0.000000   0.000000   0.000000   0.000000   0.000000   0.000000
    30  H    0.000000   0.000000   0.000000   0.000000   0.000000   0.000000
    31  H    0.000000   0.000000   0.000000   0.000000   0.000000   0.000000
    32  H    0.000000   0.000000   0.000000   0.000000   0.000000   0.000000
              13         14         15         16         17         18
     1  C    0.000000   0.000000   0.000000   0.000000   0.000000   0.000000
     2  C    0.000000   0.000000   0.000000   0.000000   0.000000   0.000000
     3  C    0.000000   0.000000   0.000000   0.000000   0.000000   0.000000
     4  C    0.000000   0.000000   0.000000   0.000000   0.000000   0.000000
     5  C    0.000000   0.000000   0.000000   0.000000   0.000000   0.000000
     6  C    0.000000   0.000000   0.000000   0.000000   0.000000   0.000000
     7  H    0.000000   0.000000   0.000000   0.000000   0.000000   0.000000
     8  H    0.000000   0.000000   0.000000   0.000000   0.000000   0.000000
     9  H    0.000000   0.000000   0.000000   0.000000   0.000000   0.000000
    10  H    0.000000   0.000000   0.000000   0.000000   0.000000   0.000000
    11  C    0.000000   0.000000   0.000000   0.000000   0.000000   0.000000
    12  C    0.000000   0.000000   0.000000   0.000000   0.000000   0.000000
    13  C    4.246931   0.000000   0.000000   0.000000   0.000000   0.000000
    14  C    0.000000   4.102207   0.000000   0.000000   0.000000   0.000000
    15  H    0.000000   0.000000   0.821537   0.000000   0.000000   0.000000
    16  O    0.000000   0.000000   0.000000   6.550585   0.000000   0.000000
    17  Cl   0.000000   0.000000   0.000000   0.000000   7.088399   0.000000
    18  C    0.000000   0.000000   0.000000   0.000000   0.000000   3.812752
    19  C    0.000000   0.000000   0.000000   0.000000   0.000000   0.000000
    20  H    0.000000   0.000000   0.000000   0.000000   0.000000   0.000000
    21  C    0.000000   0.000000   0.000000   0.000000   0.000000   0.000000
    22  H    0.000000   0.000000   0.000000   0.000000   0.000000   0.000000
    23  H    0.000000   0.000000   0.000000   0.000000   0.000000   0.000000
    24  H    0.000000   0.000000   0.000000   0.000000   0.000000   0.000000
    25  C    0.000000   0.000000   0.000000   0.000000   0.000000   0.000000
    26  H    0.000000   0.000000   0.000000   0.000000   0.000000   0.000000
    27  H    0.000000   0.000000   0.000000   0.000000   0.000000   0.000000
    28  H    0.000000   0.000000   0.000000   0.000000   0.000000   0.000000
    29  C    0.000000   0.000000   0.000000   0.000000   0.000000   0.000000
    30  H    0.000000   0.000000   0.000000   0.000000   0.000000   0.000000
    31  H    0.000000   0.000000   0.000000   0.000000   0.000000   0.000000
    32  H    0.000000   0.000000   0.000000   0.000000   0.000000   0.000000
              19         20         21         22         23         24
     1  C    0.000000   0.000000   0.000000   0.000000   0.000000   0.000000
     2  C    0.000000   0.000000   0.000000   0.000000   0.000000   0.000000
     3  C    0.000000   0.000000   0.000000   0.000000   0.000000   0.000000
     4  C    0.000000   0.000000   0.000000   0.000000   0.000000   0.000000
     5  C    0.000000   0.000000   0.000000   0.000000   0.000000   0.000000
     6  C    0.000000   0.000000   0.000000   0.000000   0.000000   0.000000
     7  H    0.000000   0.000000   0.000000   0.000000   0.000000   0.000000
     8  H    0.000000   0.000000   0.000000   0.000000   0.000000   0.000000
     9  H    0.000000   0.000000   0.000000   0.000000   0.000000   0.000000
    10  H    0.000000   0.000000   0.000000   0.000000   0.000000   0.000000
    11  C    0.000000   0.000000   0.000000   0.000000   0.000000   0.000000
    12  C    0.000000   0.000000   0.000000   0.000000   0.000000   0.000000
    13  C    0.000000   0.000000   0.000000   0.000000   0.000000   0.000000
    14  C    0.000000   0.000000   0.000000   0.000000   0.000000   0.000000
    15  H    0.000000   0.000000   0.000000   0.000000   0.000000   0.000000
    16  O    0.000000   0.000000   0.000000   0.000000   0.000000   0.000000
    17  Cl   0.000000   0.000000   0.000000   0.000000   0.000000   0.000000
    18  C    0.000000   0.000000   0.000000   0.000000   0.000000   0.000000
    19  C    4.334577   0.000000   0.000000   0.000000   0.000000   0.000000
    20  H    0.000000   0.841096   0.000000   0.000000   0.000000   0.000000
    21  C    0.000000   0.000000   4.527741   0.000000   0.000000   0.000000
    22  H    0.000000   0.000000   0.000000   0.827535   0.000000   0.000000
    23  H    0.000000   0.000000   0.000000   0.000000   0.832645   0.000000
    24  H    0.000000   0.000000   0.000000   0.000000   0.000000   0.826428
    25  C    0.000000   0.000000   0.000000   0.000000   0.000000   0.000000
    26  H    0.000000   0.000000   0.000000   0.000000   0.000000   0.000000
    27  H    0.000000   0.000000   0.000000   0.000000   0.000000   0.000000
    28  H    0.000000   0.000000   0.000000   0.000000   0.000000   0.000000
    29  C    0.000000   0.000000   0.000000   0.000000   0.000000   0.000000
    30  H    0.000000   0.000000   0.000000   0.000000   0.000000   0.000000
    31  H    0.000000   0.000000   0.000000   0.000000   0.000000   0.000000
    32  H    0.000000   0.000000   0.000000   0.000000   0.000000   0.000000
              25         26         27         28         29         30
     1  C    0.000000   0.000000   0.000000   0.000000   0.000000   0.000000
     2  C    0.000000   0.000000   0.000000   0.000000   0.000000   0.000000
     3  C    0.000000   0.000000   0.000000   0.000000   0.000000   0.000000
     4  C    0.000000   0.000000   0.000000   0.000000   0.000000   0.000000
     5  C    0.000000   0.000000   0.000000   0.000000   0.000000   0.000000
     6  C    0.000000   0.000000   0.000000   0.000000   0.000000   0.000000
     7  H    0.000000   0.000000   0.000000   0.000000   0.000000   0.000000
     8  H    0.000000   0.000000   0.000000   0.000000   0.000000   0.000000
     9  H    0.000000   0.000000   0.000000   0.000000   0.000000   0.000000
    10  H    0.000000   0.000000   0.000000   0.000000   0.000000   0.000000
    11  C    0.000000   0.000000   0.000000   0.000000   0.000000   0.000000
    12  C    0.000000   0.000000   0.000000   0.000000   0.000000   0.000000
    13  C    0.000000   0.000000   0.000000   0.000000   0.000000   0.000000
    14  C    0.000000   0.000000   0.000000   0.000000   0.000000   0.000000
    15  H    0.000000   0.000000   0.000000   0.000000   0.000000   0.000000
    16  O    0.000000   0.000000   0.000000   0.000000   0.000000   0.000000
    17  Cl   0.000000   0.000000   0.000000   0.000000   0.000000   0.000000
    18  C    0.000000   0.000000   0.000000   0.000000   0.000000   0.000000
    19  C    0.000000   0.000000   0.000000   0.000000   0.000000   0.000000
    20  H    0.000000   0.000000   0.000000   0.000000   0.000000   0.000000
    21  C    0.000000   0.000000   0.000000   0.000000   0.000000   0.000000
    22  H    0.000000   0.000000   0.000000   0.000000   0.000000   0.000000
    23  H    0.000000   0.000000   0.000000   0.000000   0.000000   0.000000
    24  H    0.000000   0.000000   0.000000   0.000000   0.000000   0.000000
    25  C    4.531977   0.000000   0.000000   0.000000   0.000000   0.000000
    26  H    0.000000   0.817832   0.000000   0.000000   0.000000   0.000000
    27  H    0.000000   0.000000   0.826889   0.000000   0.000000   0.000000
    28  H    0.000000   0.000000   0.000000   0.831556   0.000000   0.000000
    29  C    0.000000   0.000000   0.000000   0.000000   4.204524   0.000000
    30  H    0.000000   0.000000   0.000000   0.000000   0.000000   0.853140
    31  H    0.000000   0.000000   0.000000   0.000000   0.000000   0.000000
    32  H    0.000000   0.000000   0.000000   0.000000   0.000000   0.000000
              31         32
     1  C    0.000000   0.000000
     2  C    0.000000   0.000000
     3  C    0.000000   0.000000
     4  C    0.000000   0.000000
     5  C    0.000000   0.000000
     6  C    0.000000   0.000000
     7  H    0.000000   0.000000
     8  H    0.000000   0.000000
     9  H    0.000000   0.000000
    10  H    0.000000   0.000000
    11  C    0.000000   0.000000
    12  C    0.000000   0.000000
    13  C    0.000000   0.000000
    14  C    0.000000   0.000000
    15  H    0.000000   0.000000
    16  O    0.000000   0.000000
    17  Cl   0.000000   0.000000
    18  C    0.000000   0.000000
    19  C    0.000000   0.000000
    20  H    0.000000   0.000000
    21  C    0.000000   0.000000
    22  H    0.000000   0.000000
    23  H    0.000000   0.000000
    24  H    0.000000   0.000000
    25  C    0.000000   0.000000
    26  H    0.000000   0.000000
    27  H    0.000000   0.000000
    28  H    0.000000   0.000000
    29  C    0.000000   0.000000
    30  H    0.000000   0.000000
    31  H    0.847364   0.000000
    32  H    0.000000   0.797550
 Mulliken charges:
               1
     1  C   -0.053440
     2  C   -0.224052
     3  C    0.117339
     4  C   -0.257862
     5  C   -0.031939
     6  C   -0.206708
     7  H    0.159722
     8  H    0.178162
     9  H    0.164746
    10  H    0.170989
    11  C    0.564082
    12  C   -0.057771
    13  C   -0.246931
    14  C   -0.102207
    15  H    0.178463
    16  O   -0.550585
    17  Cl  -0.088399
    18  C    0.187248
    19  C   -0.334577
    20  H    0.158904
    21  C   -0.527741
    22  H    0.172465
    23  H    0.167355
    24  H    0.173572
    25  C   -0.531977
    26  H    0.182168
    27  H    0.173111
    28  H    0.168444
    29  C   -0.204524
    30  H    0.146860
    31  H    0.152636
    32  H    0.202450
 Sum of Mulliken charges =   0.00000
 Mulliken charges with hydrogens summed into heavy atoms:
               1
     1  C    0.106281
     2  C   -0.045890
     3  C    0.117339
     4  C   -0.257862
     5  C    0.132806
     6  C   -0.035719
    11  C    0.564082
    12  C   -0.057771
    13  C   -0.044482
    14  C    0.076256
    16  O   -0.550585
    17  Cl  -0.088399
    18  C    0.187248
    19  C   -0.175674
    21  C   -0.014349
    25  C   -0.008254
    29  C    0.094972
 Charge=              0.0000 electrons
 Dipole moment (field-independent basis, Debye):
    X=              0.1677    Y=              0.6024    Z=              0.0956  Tot=              0.6326
 N-N= 6.268553409007D+02 E-N=-1.140992451158D+03  KE=-5.616321019430D+01
 PrsmSu:  requested number of processors reduced to:   1 ShMem   1 Linda.
 D1PCM: C-PCM CHGder 1st derivatives, ID1Alg=3 FixD1E=F DoIter=F DoCFld=F I1PDM=0.
 Calling FoFJK, ICntrl=      2127 FMM=F ISym2X=0 I1Cent= 0 IOpClX= 0 NMat=1 NMatS=1 NMatT=0.
 ***** Axes restored to original set *****
 -------------------------------------------------------------------
 Center     Atomic                   Forces (Hartrees/Bohr)
 Number     Number              X              Y              Z
 -------------------------------------------------------------------
      1        6          -0.000237886    0.000152341   -0.000016941
      2        6          -0.000417608   -0.000018607   -0.000046827
      3        6          -0.000019805    0.000367497    0.000000499
      4        6          -0.001254360   -0.000186818   -0.000131918
      5        6           0.000376427   -0.000285780    0.000021682
      6        6          -0.000704961    0.000075664   -0.000070763
      7        1           0.000543889   -0.000029518    0.000046902
      8        1           0.000247875    0.000019539    0.000033652
      9        1           0.000409827    0.000017095    0.000075958
     10        1           0.000278416   -0.000390730    0.000036765
     11        6           0.002101231    0.003546029    0.000370626
     12        6           0.000040343   -0.000280456   -0.000001181
     13        6           0.000356421   -0.000602360    0.000270602
     14        6          -0.000078251   -0.000351185    0.000035949
     15        1          -0.000297927    0.000247218   -0.000043328
     16        8          -0.001254932   -0.002638262   -0.000387981
     17       17           0.000205745    0.000090461   -0.000005669
     18        6          -0.000423991    0.000218719   -0.000270649
     19        6           0.000073077   -0.000291998    0.000147930
     20        1           0.000041832    0.000226708   -0.000031559
     21        6           0.000796462   -0.000352107    0.000416355
     22        1          -0.000226650    0.000023427   -0.000120545
     23        1          -0.000152368    0.000160767   -0.000072337
     24        1          -0.000214205    0.000032490   -0.000119726
     25        6           0.000902151   -0.000193125    0.000035376
     26        1          -0.000448122    0.000310432    0.000086883
     27        1          -0.000267780   -0.000073299    0.000017731
     28        1          -0.000288735   -0.000024414   -0.000078717
     29        6          -0.000214003   -0.000184137   -0.000097104
     30        1           0.000079629    0.000086153    0.000132738
     31        1           0.000089668    0.000166012    0.000094534
     32        1          -0.000041409    0.000162242   -0.000328936
 -------------------------------------------------------------------
 Cartesian Forces:  Max     0.003546029 RMS     0.000590845

 GradGradGradGradGradGradGradGradGradGradGradGradGradGradGradGradGradGrad
 Berny optimization.
 FormGI is forming the generalized inverse of G from B-inverse, IUseBI=4.
 Internal  Forces:  Max     0.002936980 RMS     0.000290481
 Search for a local minimum.
 Step number   1 out of a maximum of  179
 All quantities printed in internal units (Hartrees-Bohrs-Radians)
 Mixed Optimization -- En-DIIS/RFO-DIIS
 Second derivative matrix not updated -- first step.
 ITU=  0
     Eigenvalues ---    0.00230   0.00609   0.00712   0.00788   0.00805
     Eigenvalues ---    0.00831   0.01370   0.01414   0.01521   0.01675
     Eigenvalues ---    0.01694   0.01783   0.01896   0.02077   0.02081
     Eigenvalues ---    0.02095   0.02113   0.02119   0.02135   0.02206
     Eigenvalues ---    0.02832   0.04145   0.04319   0.05323   0.05376
     Eigenvalues ---    0.06406   0.06957   0.06961   0.07177   0.07196
     Eigenvalues ---    0.09233   0.12746   0.16000   0.16000   0.16000
     Eigenvalues ---    0.16000   0.16000   0.16000   0.16000   0.16000
     Eigenvalues ---    0.16000   0.16000   0.16000   0.16000   0.16779
     Eigenvalues ---    0.19336   0.21837   0.22000   0.22000   0.22581
     Eigenvalues ---    0.24219   0.24499   0.24988   0.24999   0.24999
     Eigenvalues ---    0.25000   0.25000   0.27440   0.29275   0.30458
     Eigenvalues ---    0.31963   0.32376   0.32549   0.32577   0.32690
     Eigenvalues ---    0.32735   0.32900   0.33320   0.33330   0.33730
     Eigenvalues ---    0.33745   0.33795   0.33972   0.34009   0.34303
     Eigenvalues ---    0.34370   0.34589   0.34712   0.34817   0.35036
     Eigenvalues ---    0.35588   0.39518   0.41484   0.44107   0.45280
     Eigenvalues ---    0.45717   0.46245   0.55255   0.56361   0.96129
 RFO step:  Lambda=-5.26308835D-05 EMin= 2.30000000D-03
 Linear search not attempted -- first point.
 Iteration  1 RMS(Cart)=  0.02697021 RMS(Int)=  0.00009965
 Iteration  2 RMS(Cart)=  0.00024531 RMS(Int)=  0.00000160
 Iteration  3 RMS(Cart)=  0.00000001 RMS(Int)=  0.00000160
 Variable       Old X    -DE/DX   Delta X   Delta X   Delta X     New X
                                 (Linear)    (Quad)   (Total)
    R1        2.63991   0.00008   0.00000   0.00016   0.00016   2.64008
    R2        2.64438   0.00015   0.00000   0.00029   0.00029   2.64468
    R3        2.06347   0.00055   0.00000   0.00158   0.00158   2.06505
    R4        2.65216   0.00003   0.00000   0.00007   0.00007   2.65223
    R5        2.06145   0.00015   0.00000   0.00042   0.00042   2.06188
    R6        2.67021   0.00021   0.00000   0.00047   0.00047   2.67068
    R7        2.76858  -0.00022   0.00000  -0.00061  -0.00061   2.76797
    R8        2.65338   0.00065   0.00000   0.00147   0.00147   2.65484
    R9        2.80892  -0.00070   0.00000  -0.00211  -0.00210   2.80681
   R10        2.63515  -0.00032   0.00000  -0.00069  -0.00069   2.63446
   R11        2.06821  -0.00023   0.00000  -0.00066  -0.00066   2.06756
   R12        2.05972   0.00048   0.00000   0.00138   0.00138   2.06110
   R13        2.88444  -0.00028   0.00000  -0.00094  -0.00094   2.88350
   R14        2.30230   0.00294   0.00000   0.00306   0.00306   2.30536
   R15        2.53414   0.00015   0.00000   0.00029   0.00028   2.53443
   R16        3.26801   0.00018   0.00000   0.00056   0.00056   3.26857
   R17        2.82471  -0.00020   0.00000  -0.00057  -0.00057   2.82413
   R18        2.93379   0.00028   0.00000   0.00103   0.00103   2.93482
   R19        2.13759   0.00030   0.00000   0.00099   0.00099   2.13858
   R20        2.06710   0.00037   0.00000   0.00106   0.00106   2.06816
   R21        2.53942   0.00022   0.00000   0.00039   0.00039   2.53981
   R22        2.83151  -0.00026   0.00000  -0.00080  -0.00080   2.83071
   R23        2.82528  -0.00004   0.00000  -0.00012  -0.00012   2.82516
   R24        2.05617   0.00021   0.00000   0.00061   0.00061   2.05678
   R25        2.82899   0.00019   0.00000   0.00059   0.00059   2.82958
   R26        2.07678   0.00012   0.00000   0.00034   0.00034   2.07712
   R27        2.07378   0.00014   0.00000   0.00042   0.00042   2.07420
   R28        2.07762   0.00015   0.00000   0.00043   0.00043   2.07805
   R29        2.08493  -0.00053   0.00000  -0.00159  -0.00159   2.08334
   R30        2.07788   0.00015   0.00000   0.00045   0.00045   2.07833
   R31        2.07315   0.00022   0.00000   0.00064   0.00064   2.07379
   R32        2.09520   0.00018   0.00000   0.00054   0.00054   2.09574
   R33        2.10161  -0.00013   0.00000  -0.00039  -0.00039   2.10122
    A1        2.10430  -0.00004   0.00000  -0.00029  -0.00029   2.10402
    A2        2.08781   0.00005   0.00000   0.00033   0.00033   2.08815
    A3        2.09107  -0.00001   0.00000  -0.00005  -0.00005   2.09102
    A4        2.09648   0.00012   0.00000   0.00049   0.00049   2.09697
    A5        2.07483  -0.00027   0.00000  -0.00155  -0.00155   2.07328
    A6        2.11187   0.00015   0.00000   0.00106   0.00106   2.11293
    A7        2.08337  -0.00001   0.00000   0.00000   0.00000   2.08338
    A8        2.14215  -0.00002   0.00000  -0.00011  -0.00011   2.14203
    A9        2.05766   0.00003   0.00000   0.00011   0.00011   2.05777
   A10        2.09230  -0.00022   0.00000  -0.00079  -0.00079   2.09151
   A11        2.12020  -0.00018   0.00000  -0.00081  -0.00081   2.11940
   A12        2.07068   0.00040   0.00000   0.00160   0.00160   2.07228
   A13        2.10066   0.00012   0.00000   0.00056   0.00056   2.10121
   A14        2.07879   0.00030   0.00000   0.00197   0.00197   2.08077
   A15        2.10373  -0.00042   0.00000  -0.00253  -0.00253   2.10120
   A16        2.08925   0.00003   0.00000   0.00002   0.00002   2.08927
   A17        2.09692  -0.00006   0.00000  -0.00031  -0.00031   2.09661
   A18        2.09701   0.00004   0.00000   0.00029   0.00029   2.09730
   A19        2.07421   0.00032   0.00000   0.00130   0.00130   2.07551
   A20        2.12052  -0.00040   0.00000  -0.00163  -0.00164   2.11888
   A21        2.08843   0.00008   0.00000   0.00030   0.00029   2.08872
   A22        2.16311  -0.00005   0.00000  -0.00010  -0.00010   2.16301
   A23        2.04284  -0.00019   0.00000  -0.00080  -0.00080   2.04204
   A24        2.07723   0.00024   0.00000   0.00090   0.00090   2.07813
   A25        2.00699  -0.00007   0.00000  -0.00058  -0.00058   2.00642
   A26        1.91250   0.00032   0.00000   0.00241   0.00241   1.91491
   A27        1.84874   0.00000   0.00000   0.00115   0.00115   1.84989
   A28        1.92615  -0.00026   0.00000  -0.00193  -0.00193   1.92423
   A29        1.87495  -0.00006   0.00000  -0.00238  -0.00238   1.87257
   A30        1.88934   0.00008   0.00000   0.00148   0.00148   1.89082
   A31        2.14001  -0.00007   0.00000  -0.00014  -0.00014   2.13987
   A32        2.13610   0.00017   0.00000   0.00092   0.00092   2.13702
   A33        2.00708  -0.00010   0.00000  -0.00078  -0.00078   2.00630
   A34        2.11204  -0.00004   0.00000  -0.00018  -0.00018   2.11186
   A35        2.16117   0.00016   0.00000   0.00065   0.00065   2.16182
   A36        2.00995  -0.00012   0.00000  -0.00049  -0.00049   2.00947
   A37        2.11287  -0.00028   0.00000  -0.00120  -0.00120   2.11167
   A38        2.17037   0.00063   0.00000   0.00288   0.00288   2.17324
   A39        1.99993  -0.00036   0.00000  -0.00169  -0.00169   1.99824
   A40        1.94430   0.00022   0.00000   0.00137   0.00137   1.94567
   A41        1.97365   0.00018   0.00000   0.00131   0.00131   1.97496
   A42        1.93876   0.00016   0.00000   0.00076   0.00076   1.93952
   A43        1.86759  -0.00015   0.00000  -0.00057  -0.00057   1.86702
   A44        1.86663  -0.00026   0.00000  -0.00197  -0.00197   1.86466
   A45        1.86738  -0.00019   0.00000  -0.00122  -0.00122   1.86615
   A46        1.97002  -0.00014   0.00000  -0.00039  -0.00039   1.96963
   A47        1.93457   0.00002   0.00000  -0.00004  -0.00004   1.93453
   A48        1.96200  -0.00010   0.00000  -0.00094  -0.00094   1.96106
   A49        1.86042   0.00016   0.00000   0.00163   0.00163   1.86206
   A50        1.86197   0.00018   0.00000   0.00144   0.00144   1.86342
   A51        1.86853  -0.00011   0.00000  -0.00160  -0.00160   1.86693
   A52        1.93921   0.00014   0.00000   0.00089   0.00088   1.94009
   A53        1.92006  -0.00014   0.00000  -0.00252  -0.00252   1.91754
   A54        1.91648   0.00008   0.00000   0.00233   0.00232   1.91880
   A55        1.92782  -0.00013   0.00000  -0.00251  -0.00251   1.92530
   A56        1.92639   0.00008   0.00000   0.00277   0.00277   1.92916
   A57        1.83103  -0.00003   0.00000  -0.00105  -0.00104   1.82998
    D1        0.00031   0.00000   0.00000   0.00002   0.00002   0.00034
    D2        3.14080  -0.00001   0.00000  -0.00023  -0.00023   3.14057
    D3       -3.14151   0.00000   0.00000   0.00017   0.00017  -3.14134
    D4       -0.00102   0.00000   0.00000  -0.00009  -0.00009  -0.00111
    D5       -0.00033   0.00000   0.00000   0.00012   0.00012  -0.00021
    D6        3.14079   0.00001   0.00000   0.00042   0.00042   3.14120
    D7        3.14150   0.00000   0.00000  -0.00003  -0.00003   3.14147
    D8       -0.00057   0.00001   0.00000   0.00027   0.00027  -0.00030
    D9        0.00067  -0.00001   0.00000  -0.00024  -0.00024   0.00043
   D10        3.14019   0.00001   0.00000   0.00028   0.00028   3.14048
   D11       -3.13980   0.00000   0.00000   0.00003   0.00003  -3.13977
   D12       -0.00027   0.00001   0.00000   0.00055   0.00055   0.00028
   D13       -0.00164   0.00001   0.00000   0.00031   0.00031  -0.00133
   D14        3.13914   0.00000   0.00000   0.00047   0.00047   3.13961
   D15       -3.14126   0.00000   0.00000  -0.00018  -0.00018  -3.14144
   D16       -0.00049  -0.00002   0.00000  -0.00002  -0.00002  -0.00051
   D17       -3.09846  -0.00001   0.00000   0.00075   0.00075  -3.09771
   D18        0.04417   0.00002   0.00000   0.00081   0.00081   0.04498
   D19        0.04109   0.00000   0.00000   0.00126   0.00126   0.04235
   D20       -3.09947   0.00004   0.00000   0.00132   0.00132  -3.09814
   D21        0.00164  -0.00001   0.00000  -0.00017  -0.00017   0.00147
   D22       -3.13945  -0.00003   0.00000  -0.00103  -0.00103  -3.14048
   D23       -3.13916   0.00001   0.00000  -0.00033  -0.00033  -3.13949
   D24        0.00294  -0.00001   0.00000  -0.00118  -0.00119   0.00175
   D25       -0.06995  -0.00001   0.00000  -0.00187  -0.00187  -0.07181
   D26        3.06526  -0.00002   0.00000  -0.00811  -0.00810   3.05716
   D27        3.07084  -0.00003   0.00000  -0.00171  -0.00171   3.06913
   D28       -0.07714  -0.00004   0.00000  -0.00795  -0.00794  -0.08509
   D29       -0.00065   0.00000   0.00000  -0.00004  -0.00004  -0.00070
   D30        3.14142  -0.00001   0.00000  -0.00034  -0.00034   3.14108
   D31        3.14043   0.00002   0.00000   0.00083   0.00083   3.14126
   D32       -0.00068   0.00001   0.00000   0.00053   0.00053  -0.00016
   D33        0.09862   0.00004   0.00000   0.00245   0.00246   0.10107
   D34       -2.08260   0.00019   0.00000   0.00351   0.00351  -2.07909
   D35        2.16622  -0.00007   0.00000  -0.00005  -0.00005   2.16617
   D36       -3.03671   0.00006   0.00000   0.00858   0.00859  -3.02812
   D37        1.06526   0.00020   0.00000   0.00964   0.00964   1.07490
   D38       -0.96911  -0.00006   0.00000   0.00608   0.00608  -0.96303
   D39       -0.00583   0.00003   0.00000  -0.00053  -0.00053  -0.00636
   D40        3.13185   0.00006   0.00000   0.00017   0.00018   3.13202
   D41        3.13471  -0.00001   0.00000  -0.00060  -0.00060   3.13411
   D42       -0.01080   0.00003   0.00000   0.00011   0.00011  -0.01069
   D43       -0.06394  -0.00003   0.00000  -0.00127  -0.00127  -0.06521
   D44        3.08131  -0.00007   0.00000  -0.00193  -0.00193   3.07938
   D45        2.11013   0.00013   0.00000  -0.00005  -0.00005   2.11007
   D46       -1.02781   0.00010   0.00000  -0.00072  -0.00072  -1.02853
   D47       -2.11680   0.00005   0.00000  -0.00073  -0.00073  -2.11753
   D48        1.02845   0.00002   0.00000  -0.00139  -0.00139   1.02706
   D49       -2.39630  -0.00028   0.00000  -0.02650  -0.02650  -2.42280
   D50        1.74650  -0.00011   0.00000  -0.02217  -0.02217   1.72433
   D51       -0.26018  -0.00003   0.00000  -0.02080  -0.02080  -0.28098
   D52        1.65966  -0.00023   0.00000  -0.02612  -0.02612   1.63354
   D53       -0.48073  -0.00007   0.00000  -0.02179  -0.02179  -0.50252
   D54       -2.48741   0.00001   0.00000  -0.02042  -0.02042  -2.50783
   D55       -0.38772  -0.00006   0.00000  -0.02304  -0.02303  -0.41076
   D56       -2.52811   0.00011   0.00000  -0.01871  -0.01871  -2.54682
   D57        1.74839   0.00019   0.00000  -0.01734  -0.01733   1.73106
   D58       -0.01118   0.00001   0.00000  -0.00042  -0.00043  -0.01161
   D59        3.13763   0.00003   0.00000   0.00106   0.00106   3.13869
   D60        3.13850   0.00004   0.00000   0.00142   0.00142   3.13993
   D61        0.00413   0.00006   0.00000   0.00291   0.00291   0.00704
   D62       -2.23514  -0.00004   0.00000   0.00083   0.00082  -2.23431
   D63       -0.13094   0.00005   0.00000   0.00201   0.00201  -0.12893
   D64        1.96897   0.00004   0.00000   0.00189   0.00189   1.97086
   D65        0.89903  -0.00006   0.00000  -0.00086  -0.00086   0.89816
   D66        3.00322   0.00002   0.00000   0.00032   0.00032   3.00354
   D67       -1.18005   0.00002   0.00000   0.00020   0.00021  -1.17985
   D68       -0.45052  -0.00002   0.00000   0.00018   0.00018  -0.45034
   D69        1.63500   0.00011   0.00000   0.00198   0.00198   1.63698
   D70       -2.55773  -0.00009   0.00000  -0.00073  -0.00073  -2.55845
   D71        2.69874   0.00000   0.00000   0.00193   0.00193   2.70067
   D72       -1.49893   0.00013   0.00000   0.00372   0.00372  -1.49521
   D73        0.59153  -0.00006   0.00000   0.00102   0.00102   0.59255
   D74        1.49554   0.00019   0.00000   0.00974   0.00974   1.50528
   D75       -2.65175   0.00001   0.00000   0.00540   0.00540  -2.64635
   D76       -0.63482  -0.00006   0.00000   0.00428   0.00428  -0.63055
   D77       -1.63925   0.00021   0.00000   0.01115   0.01115  -1.62811
   D78        0.49665   0.00004   0.00000   0.00680   0.00680   0.50345
   D79        2.51357  -0.00004   0.00000   0.00568   0.00568   2.51925
         Item               Value     Threshold  Converged?
 Maximum Force            0.002937     0.000450     NO 
 RMS     Force            0.000290     0.000300     YES
 Maximum Displacement     0.087764     0.001800     NO 
 RMS     Displacement     0.026952     0.001200     NO 
 Predicted change in Energy=-2.646639D-05
 GradGradGradGradGradGradGradGradGradGradGradGradGradGradGradGradGradGrad

                          Input orientation:                          
 ---------------------------------------------------------------------
 Center     Atomic      Atomic             Coordinates (Angstroms)
 Number     Number       Type             X           Y           Z
 ---------------------------------------------------------------------
      1          6           0        4.203258   -1.060143    0.160947
      2          6           0        3.505564    0.147246    0.075899
      3          6           0        2.107336    0.146334   -0.045634
      4          6           0        1.415439   -1.085489   -0.080357
      5          6           0        2.130795   -2.291581    0.005102
      6          6           0        3.519618   -2.280803    0.125773
      7          1           0        5.291879   -1.049781    0.255614
      8          1           0        4.067332    1.082091    0.107153
      9          1           0        1.585072   -3.239427   -0.023825
     10          1           0        4.071286   -3.219328    0.192327
     11          6           0       -0.063600   -1.139879   -0.205285
     12          6           0        1.319594    1.377787   -0.137614
     13          6           0       -0.852880    0.166007   -0.201997
     14          6           0       -0.019536    1.406553   -0.205570
     15          1           0       -0.584418    2.342050   -0.264914
     16          8           0       -0.652982   -2.201523   -0.322769
     17         17           0        2.194380    2.869753   -0.159606
     18          6           0       -4.165746    0.035244    0.065551
     19          6           0       -3.163529    0.748645    0.606830
     20          1           0       -3.269010    1.817100    0.785412
     21          6           0       -5.466586    0.683834   -0.296369
     22          1           0       -6.319909    0.144686    0.138741
     23          1           0       -5.538812    1.725193    0.042930
     24          1           0       -5.616319    0.691014   -1.385762
     25          6           0       -4.089850   -1.432352   -0.209153
     26          1           0       -3.056990   -1.786613   -0.361166
     27          1           0       -4.501179   -2.009611    0.631770
     28          1           0       -4.657857   -1.719686   -1.103074
     29          6           0       -1.834942    0.181615    1.001019
     30          1           0       -1.398913    0.767070    1.835910
     31          1           0       -1.954589   -0.846913    1.406200
     32          1           0       -1.459891    0.165819   -1.157118
 ---------------------------------------------------------------------
                    Distance matrix (angstroms):
                    1          2          3          4          5
     1  C    0.000000
     2  C    1.397068   0.000000
     3  C    2.427169   1.403500   0.000000
     4  C    2.798358   2.431599   1.413264   0.000000
     5  C    2.415746   2.800514   2.438556   1.404883   0.000000
     6  C    1.399504   2.428601   2.813345   2.428751   1.394096
     7  H    1.092778   2.157798   3.415077   3.891136   3.405477
     8  H    2.147216   1.091098   2.177285   3.430175   3.891305
     9  H    3.411498   3.894585   3.425874   2.161347   1.094104
    10  H    2.163442   3.415761   3.904024   3.417770   2.158998
    11  C    4.283288   3.804561   2.528398   1.485302   2.487177
    12  C    3.787897   2.517596   1.464745   2.465805   3.760676
    13  C    5.215334   4.367335   2.964409   2.593513   3.871040
    14  C    4.904173   3.753853   2.477361   2.878386   4.283049
    15  H    5.888813   4.654167   3.480631   3.972595   5.377344
    16  O    5.011965   4.792615   3.634362   2.362766   2.804465
    17  Cl   4.425204   3.030959   2.727193   4.031993   5.164353
    18  C    8.440924   7.672135   6.275051   5.694467   6.712987
    19  C    7.598689   6.717170   5.345139   4.980283   6.134731
    20  H    8.031393   7.013321   5.690975   5.578408   6.829937
    21  C    9.836487   8.995888   7.597110   7.109109   8.164814
    22  H   10.591939   9.825675   8.429263   7.835621   8.795889
    23  H   10.133112   9.181054   7.807959   7.501782   8.657874
    24  H   10.093709   9.254237   7.857956   7.369238   8.417135
    25  C    8.309703   7.763163   6.397195   5.517709   6.283360
    26  H    7.315160   6.855506   5.523234   4.535753   5.225157
    27  H    8.768717   8.310774   6.984229   6.030547   6.667481
    28  H    8.975083   8.456765   7.097046   6.191372   6.902241
    29  C    6.221539   5.420151   4.079005   3.652383   4.778663
    30  H    6.126053   5.247448   4.027319   3.876161   5.016577
    31  H    6.286113   5.707130   4.426466   3.691052   4.554175
    32  H    5.942351   5.116290   3.736427   3.315526   4.503621
                    6          7          8          9         10
     6  C    0.000000
     7  H    2.161755   0.000000
     8  H    3.407256   2.463013   0.000000
     9  H    2.164211   4.314285   4.985408   0.000000
    10  H    1.090687   2.490138   4.302264   2.495674   0.000000
    11  C    3.775017   5.376030   4.700996   2.675658   4.645373
    12  C    4.277237   4.671913   2.774421   4.626240   5.367881
    13  C    5.021260   6.280575   5.014307   4.191937   5.988606
    14  C    5.121717   5.870042   4.111637   4.918631   6.188047
    15  H    6.194070   6.804876   4.833706   5.993137   7.267295
    16  O    4.197388   6.082961   5.766135   2.485055   4.860037
    17  Cl   5.325967   5.012949   2.602854   6.140991   6.381501
    18  C    8.026986   9.521558   8.299469   6.618410   8.857596
    19  C    7.353463   8.651683   7.255771   6.233109   8.261911
    20  H    7.956971   9.043700   7.404200   7.055879   8.921732
    21  C    9.472018  10.911218   9.550761   8.074164  10.317195
    22  H   10.134074  11.673647  10.429502   8.600429  10.922290
    23  H    9.905050  11.182557   9.627861   8.683411  10.808543
    24  H    9.725316  11.167510   9.805857   8.316445  10.565550
    25  C    7.663944   9.401022   8.541785   5.958574   8.364127
    26  H    6.613101   8.403984   7.694462   4.875777   7.291869
    27  H    8.041316   9.847170   9.124321   6.243773   8.668546
    28  H    8.288306  10.064396   9.243567   6.515256   8.951254
    29  C    5.958260   7.270732   6.037110   4.944727   6.863230
    30  H    6.033742   7.110906   5.741748   5.330553   6.965330
    31  H    5.801937   7.340048   6.455395   4.505363   6.588856
    32  H    5.694495   7.004277   5.743530   4.706575   6.623756
                   11         12         13         14         15
    11  C    0.000000
    12  C    2.873403   0.000000
    13  C    1.525881   2.488413   0.000000
    14  C    2.546814   1.341161   1.494467   0.000000
    15  H    3.521169   2.138052   2.193443   1.094425   0.000000
    16  O    1.219943   4.091063   2.379021   3.665133   4.544458
    17  Cl   4.601924   1.729652   4.074044   2.654145   2.830420
    18  C    4.275730   5.650898   3.326223   4.375506   4.272759
    19  C    3.719626   4.587854   2.516499   3.313236   3.154471
    20  H    4.472120   4.701091   3.088489   3.421940   2.930152
    21  C    5.703200   6.823417   4.643633   5.495537   5.156184
    22  H    6.396083   7.743315   5.477679   6.434716   6.155258
    23  H    6.184513   6.869572   4.944594   5.534049   5.002130
    24  H    5.964762   7.080708   4.936323   5.764446   5.413155
    25  C    4.036861   6.096235   3.610094   4.962545   5.151434
[...]
 355,-0.00000111,-0.00000060,-0.00000261,-0.00000444,-0.00000012,0.0000
 0398,0.00000767,-0.00000054,-0.00000202,0.00000478,-0.00000096,-0.0001
 8616,0.00031441,0.00006256,0.00001126,-0.00002619,0.00000572,-0.000127
 90,0.00002240,-0.00000702,0.00000949,-0.00001305,-0.00002182,0.0000183
 2,-0.00000122,-0.00000039,0.00009439,-0.00027961,-0.00007002,0.0000153
 8,0.00003696,-0.00000220,0.00498529,0.00523855,0.00263849,-0.00069064,
 -0.00100343,-0.00055839,-0.00000733,0.00014767,-0.00002727,0.00028185,
 -0.00057070,-0.00062054,-0.00000872,-0.00004085,0.00002343,0.00008590,
 -0.00001626,0.00000964,-0.00006625,0.00004359,-0.00005027,-0.09476423,
 0.07352808,-0.04456738,0.00345368,0.00063861,-0.00222310,0.10868636,-0
 .00000552,0.00004043,-0.00000669,0.00006680,-0.00001294,0.00001543,-0.
 00007506,0.00002488,-0.00002008,0.00008775,-0.00002945,0.00003447,0.00
 002892,0.00001336,0.00000683,-0.00000741,-0.00003028,0.00000120,-0.000
 01092,-0.00000221,-0.00000196,-0.00000648,-0.00001320,0.00000006,0.000
 00140,0.00001364,-0.00000182,-0.00000674,0.00001084,-0.00000275,-0.000
 26715,0.00030881,-0.00005144,0.00005881,-0.00009047,0.00002770,0.00021
 082,-0.00018819,-0.00012279,-0.00006139,-0.00009217,-0.00001627,-0.000
 00702,-0.00002313,0.00002388,0.00003060,-0.00015496,-0.00001944,0.0000
 3858,0.00007640,-0.00000641,0.01392578,-0.03689367,0.00410859,-0.00016
 229,-0.00053211,-0.00002511,0.00032236,-0.00007159,-0.00030819,-0.0003
 2691,-0.00188478,-0.00105595,0.00000658,-0.00001916,-0.00001987,0.0003
 1192,-0.00024893,-0.00001534,-0.00008967,0.00005131,0.00000254,0.07288
 575,-0.12239996,0.05230815,0.00319421,-0.00081026,0.00728583,-0.090283
 82,0.16004239,-0.00000003,0.00000510,-0.00000075,0.00000904,-0.0000004
 6,0.00000449,-0.00000859,-0.00000030,-0.00000490,0.00002538,0.00001375
 ,-0.00001448,-0.00000032,0.00000378,0.00000067,0.00000002,-0.00000360,
 0.00000233,-0.00000160,-0.00000056,-0.00000092,-0.00000057,-0.00000216
 ,-0.00000052,0.00000064,0.00000140,-0.00000171,-0.00000075,0.00000151,
 -0.00000099,-0.00010361,-0.00004679,-0.00003023,0.00000445,-0.00001154
 ,0.00000337,0.00001730,0.00005610,-0.00007177,0.00000778,-0.00000567,-
 0.00002234,0.00000360,-0.00000291,0.00000322,0.00011532,0.00007144,0.0
 0000766,0.00000651,0.00001280,0.00000478,0.00359366,-0.00560783,0.0062
 7056,-0.00009414,-0.00061994,0.00006082,0.00009265,0.00009740,-0.00021
 147,0.00013877,-0.00159181,-0.00053172,-0.00009192,0.00000751,0.000042
 14,0.00019368,-0.00009065,0.00003114,-0.00010014,0.00007075,-0.0000543
 6,-0.04483899,0.05381008,-0.06344290,-0.01252254,0.01576224,-0.0173496
 4,0.05435431,-0.06153479,0.07121526,-0.00000394,0.00002187,-0.00000391
 ,0.00003329,-0.00000758,0.00000753,-0.00004075,0.00001873,-0.00001003,
 0.00002506,-0.00002512,0.00001442,0.00002188,0.00000375,0.00000451,-0.
 00000665,-0.00001941,0.00000024,-0.00000472,-0.00000118,-0.00000067,-0
 .00000352,-0.00000660,0.00000004,0.00000167,0.00000650,-0.00000053,-0.
 00000317,0.00000537,-0.00000109,-0.00010066,0.00023405,-0.00002001,0.0
 0004300,-0.00005103,0.00001840,0.00021812,-0.00008944,-0.00012212,-0.0
 0004694,-0.00005648,-0.00001918,-0.00001215,-0.00001496,0.00001951,0.0
 0001048,-0.00014251,-0.00001658,0.00001517,0.00003960,-0.00000255,-0.0
 1010471,-0.01687249,-0.00433191,0.00037675,0.00034126,0.00051651,0.000
 06791,-0.00019839,-0.00018020,0.00005996,0.00059671,0.00015758,0.00009
 939,0.00005735,0.00000951,-0.00009495,0.00003956,-0.00003771,0.0000763
 4,-0.00004690,0.00002948,-0.19917010,-0.05061878,0.02179063,-0.0091927
 4,-0.00298114,0.00901001,-0.02181613,0.00238929,-0.00138928,0.23982973
 ,-0.00000273,0.00001683,-0.00000284,0.00002576,-0.00000595,0.00000592,
 -0.00003030,0.00001487,-0.00000810,0.00001822,-0.00001494,0.00000792,0
 .00001443,0.00000209,0.00000332,-0.00000534,-0.00001387,0.00000020,-0.
 00000369,-0.00000075,-0.00000061,-0.00000261,-0.00000466,0.00000009,0.
 00000126,0.00000548,-0.00000048,-0.00000262,0.00000421,-0.00000097,-0.
 00007781,0.00014659,-0.00001251,0.00002990,-0.00003634,0.00001213,0.00
 016641,-0.00000837,-0.00007250,-0.00002887,-0.00004379,-0.00001365,-0.
 00000855,-0.00001034,0.00001308,0.00000817,-0.00008151,-0.00000881,0.0
 0001381,0.00002780,-0.00000179,-0.02877043,-0.01920720,-0.00290707,-0.
 00002278,-0.00205959,-0.00101022,-0.00003329,0.00002016,-0.00087062,0.
 00003699,-0.00110949,-0.00008264,0.00039118,-0.00066580,-0.00043535,-0
 .00013501,0.00002440,-0.00004032,0.00011640,-0.00078111,0.00034919,-0.
 04853024,-0.04900181,0.00664643,-0.00333105,0.00284519,0.00245317,0.01
 296365,0.00364902,-0.00029001,0.06724085,0.06620938,-0.00000041,0.0000
 0401,-0.00000035,0.00000611,-0.00000091,0.00000099,-0.00000763,0.00000
 497,-0.00000112,0.00000318,-0.00000272,-0.00000699,0.00000342,0.000000
 50,0.00000120,-0.00000088,-0.00000344,-0.00000007,-0.00000094,-0.00000
 028,-0.00000009,-0.00000069,-0.00000143,0.00000046,-0.00000008,0.00000
 093,0.00000054,-0.00000062,0.00000100,0.00000004,-0.00001349,0.0000429
 4,0.00000324,0.00001063,-0.00001228,0.00000382,0.00004714,-0.00002502,
 -0.00005850,-0.00001321,-0.00001498,-0.00000734,-0.00000193,-0.0000050
 0,0.00001093,-0.00000448,-0.00001651,-0.00001012,0.00000304,0.00000845
 ,0.00000067,-0.01005102,-0.00737172,0.00268529,0.00025757,-0.00112828,
 -0.00019992,-0.00004618,-0.00000235,-0.00040125,0.00014031,-0.00011192
 ,0.00010586,0.00011183,-0.00020350,-0.00005086,-0.00005697,0.00004324,
 0.00000918,-0.00010748,0.00014571,-0.00001524,0.02272973,0.00760330,-0
 .03375627,0.02220699,0.00521853,-0.00839780,-0.00947992,-0.00011284,0.
 00362319,-0.02554938,-0.00408169,0.03632756,-0.00009103,0.00055122,-0.
 00009586,0.00074706,-0.00019765,0.00024404,-0.00109476,0.00061408,-0.0
 0003822,-0.00083418,0.00069879,-0.00154046,0.00033559,-0.00015683,0.00
 010581,-0.00034145,-0.00034106,0.00007438,-0.00005658,-0.00001584,-0.0
 0002232,-0.00004389,-0.00006733,0.00000910,0.00002695,0.00005711,-0.00
 002237,-0.00004281,0.00005283,-0.00003128,-0.02322278,0.01931270,0.017
 72996,0.00140215,-0.00134601,0.00075648,-0.07773030,-0.00200351,0.0517
 7566,-0.01694078,-0.01698716,0.01674854,0.00015577,-0.00026529,0.00006
 129,-0.00071886,-0.00200363,-0.00067171,0.00008637,0.00006871,-0.00050
 448,-0.04484204,0.01382577,-0.01466104,-0.16607310,0.09033490,-0.01322
 803,-0.00374409,0.01326561,-0.00061625,-0.00009297,-0.00088068,-0.0033
 0582,0.00001813,-0.00006284,0.00002569,0.00002457,-0.00010355,0.000025
 88,-0.00069356,0.00040285,-0.00004201,-0.00329837,0.00057283,0.0002471
 4,0.00021006,0.00019753,-0.00003200,-0.00100771,-0.00139276,-0.0006971
 9,-0.00016694,-0.00000667,-0.00019615,0.46207058,0.00012686,-0.0005330
 0,0.00008207,-0.00055103,0.00019644,-0.00024186,0.00086024,-0.00104623
 ,0.00046374,0.00167408,-0.00063396,0.00201162,-0.00047154,0.00036797,-
 0.00019775,0.00046669,0.00042253,-0.00006737,0.00001522,0.00001257,0.0
 0002188,0.00007184,0.00008337,0.00000577,-0.00002942,0.00001081,0.0000
 1580,0.00006132,-0.00005188,0.00004119,0.01247381,-0.00305448,-0.01469
 523,-0.00186025,-0.00038565,-0.00015132,-0.00195967,-0.05144965,0.0032
 7139,-0.01601275,-0.00464084,0.01863062,-0.00013567,-0.00041565,-0.000
 09019,0.00145353,-0.00199907,0.00005732,-0.00040767,-0.00093956,-0.000
 82432,0.00889130,0.00521852,0.00494668,0.08686003,-0.12830141,0.011118
 19,0.02396986,-0.02744087,-0.00293041,-0.00039480,0.00154288,-0.002388
 54,0.00037108,-0.00016721,0.00000832,-0.00004138,-0.00002086,-0.000011
 17,-0.00023447,0.00019783,0.00006408,-0.00181949,-0.00120206,-0.000372
 93,-0.00013224,0.00029942,0.00015364,-0.00206333,-0.00066065,-0.001203
 63,0.00012416,0.00005039,0.00002112,-0.03698658,0.44572699,0.00001617,
 -0.00022945,0.00003796,-0.00037725,0.00008738,-0.00002514,0.00050807,-
 0.00015444,0.00011888,-0.00035388,0.00028010,-0.00096217,-0.00020757,-
 0.00004652,0.00005907,0.00005608,0.00014110,0.00004445,0.00004044,0.00
 000610,-0.00000351,0.00000748,0.00002176,-0.00000441,0.00000023,-0.000
 06562,-0.00000133,0.00000800,-0.00002739,-0.00001311,0.01422331,-0.014
 63961,-0.00287815,-0.00119148,0.00020636,-0.00075013,0.04934203,0.0001
 3140,-0.13002267,0.01610700,0.01555964,-0.00915164,0.00003044,0.000381
 51,-0.00004518,0.00131141,0.00212363,-0.00023469,0.00000866,0.00003002
 ,0.00010555,-0.01288848,0.00666197,0.00044335,-0.02173624,0.01559886,-
 0.06067066,0.00374343,-0.00686013,0.00601019,-0.00450022,-0.00179171,0
 .00586118,-0.00076044,0.00079834,-0.00032379,0.00013141,-0.00034079,-0
 .00009781,0.00083425,-0.00049032,0.00028363,-0.00159918,-0.00015434,-0
 .00338220,0.00000169,-0.00035293,0.00017003,-0.00012926,-0.00006457,0.
 00017451,0.00021256,0.00041517,0.00013660,0.01770576,-0.00304607,0.411
 44783,0.00002562,-0.00008526,0.00001598,-0.00011550,0.00002900,-0.0000
 1246,0.00017232,-0.00007584,-0.00001245,0.00002947,-0.00001410,-0.0000
 2640,-0.00008227,0.00000380,-0.00000969,0.00004629,0.00007371,0.000006
 61,0.00001112,0.00000186,-0.00000101,0.00001287,0.00001473,-0.00000568
 ,-0.00000009,-0.00001502,-0.00000669,0.00001098,-0.00001438,0.00000086
 ,0.00060678,-0.00069275,0.00086338,-0.00030871,0.00009295,-0.00000796,
 0.00491376,0.00366581,0.01210307,0.00066602,0.00024063,0.00045441,-0.0
 0003042,0.00002391,0.00002950,-0.00001470,0.00034033,0.00001365,-0.000
 01402,-0.00001358,0.00003356,-0.00154485,0.00148296,-0.00054594,-0.025
 86315,0.00376727,-0.02157264,0.00000903,0.00026580,-0.00026124,-0.0003
 9554,-0.00023662,0.00035971,-0.00008738,0.00007080,-0.00001680,0.00001
 123,-0.00001095,-0.00000278,0.00002578,-0.00002136,0.00000101,0.000101
 36,0.00010937,0.00003962,-0.00001061,0.00000388,-0.00002077,-0.0000297
 7,-0.00001636,-0.00002759,-0.00000646,-0.00000126,0.00000706,-0.084399
 92,-0.02782111,-0.07768365,0.11124373,-0.00000359,0.00000100,0.0000011
 6,-0.00002095,-0.00000054,0.00000114,0.00000477,0.00010463,-0.00002473
 ,-0.00020089,-0.00002628,-0.00005410,0.00002486,-0.00003992,0.00001405
 ,-0.00002167,-0.00000775,-0.00000620,0.00000727,0.00000084,0.00000101,
 -0.00000180,-0.00000231,-0.00000273,-0.00000749,-0.00001257,0.00000299
 ,-0.00000216,-0.00000284,0.00000075,0.00108661,-0.00089757,-0.00063687
 ,0.00002455,-0.00006351,0.00006155,-0.00025369,0.00325890,-0.00240228,
 -0.00026265,-0.00001708,0.00076228,-0.00004597,-0.00004880,0.00008081,
 -0.00002915,0.00023058,0.00001787,0.00001559,0.00002122,-0.00001087,0.
 00130263,-0.00123358,0.00002542,0.01287031,0.00398103,0.01118224,0.000
 72176,-0.00002989,0.00050804,0.00052843,0.00014503,-0.00015043,0.00004
 331,-0.00006290,0.00003067,-0.00002738,0.00005889,0.00000450,-0.000016
 60,0.00001176,-0.00003359,-0.00016657,-0.00002767,-0.00005675,-0.00000
 355,0.00001626,-0.00000912,0.00002725,0.00001267,0.00001639,-0.0000057
 3,0.00000249,0.00000467,-0.02877442,-0.04908093,-0.04283808,0.02765256
 ,0.05577161,0.00001918,-0.00008837,0.00001535,-0.00015476,0.00003159,-
 0.00002809,0.00016734,-0.00006697,0.00004583,-0.00018303,0.00016118,-0
 .00012785,-0.00009545,-0.00002821,-0.00001325,0.00000696,0.00008508,-0
 .00000252,0.00002881,0.00000640,0.00000354,0.00002070,0.00003640,-0.00
 000118,-0.00000688,-0.00003712,-0.00000053,0.00002036,-0.00003142,0.00
 000522,0.00058759,-0.00108480,-0.00097789,0.00002626,0.00018450,-0.000
 19139,-0.00061439,-0.00828084,-0.03479743,0.00025988,0.00069987,-0.001
 17509,-0.00000213,0.00006295,-0.00016080,-0.00006941,0.00050787,0.0001
 1294,-0.00013959,-0.00024922,-0.00001182,-0.00099725,0.00001918,-0.000
 29190,-0.01427501,0.00298061,-0.00501913,-0.00005614,0.00026374,0.0003
 7416,0.00044641,-0.00019304,0.00003082,-0.00007119,-0.00002945,0.00004
 146,-0.00002914,0.00009100,0.00001579,-0.00005562,0.00001097,-0.000077
 15,0.00037801,0.00038293,0.00033110,-0.00000495,-0.00002073,-0.0001153
 0,-0.00006897,-0.00013620,-0.00004828,-0.00008568,-0.00004022,-0.00001
 832,-0.07543128,-0.03876469,-0.14223429,0.09226222,0.04803226,0.185020
 67,0.00001967,-0.00006188,0.00000917,-0.00003176,0.00002610,-0.0000129
 4,0.00009849,-0.00019805,0.00007355,0.00049310,-0.00002871,0.00019454,
 -0.00010153,0.00009566,-0.00002892,0.00008763,0.00005769,0.00000605,-0
 .00001123,-0.00000116,-0.00000159,0.00000583,-0.00000028,0.00000094,0.
 00000539,0.00001975,-0.00000570,0.00000359,0.00000380,-0.00000003,-0.0
 0379358,0.00013499,0.00212955,-0.00025978,-0.00006218,-0.00003560,-0.0
 0935986,-0.01519214,0.01275685,-0.00065460,0.00017553,0.00140817,0.000
 02853,0.00001634,-0.00006207,0.00005611,0.00003062,-0.00003209,-0.0000
 1330,-0.00004200,-0.00010134,-0.00074993,0.00158921,-0.00049802,0.0014
 3766,0.02202441,-0.00401458,-0.00160869,0.00113572,0.00017824,-0.00024
 042,-0.00019769,0.00037083,-0.00003428,0.00003047,-0.00000376,0.000037
 37,-0.00004642,-0.00000016,0.00007427,-0.00002796,0.00001879,-0.001126
 75,0.00073002,-0.00100531,0.00001644,-0.00012394,-0.00004045,0.0013228
 3,-0.00051662,0.00106411,-0.00007097,0.00000463,0.00000413,-0.04664976
 ,-0.04750429,0.00868027,-0.00403359,-0.01438604,-0.00319707,0.06478038
 ,-0.00002508,0.00014815,-0.00002478,0.00021244,-0.00005159,0.00004620,
 -0.00026653,0.00013129,-0.00007820,0.00003587,-0.00013685,0.00004007,0
 .00014170,-0.00000593,0.00003348,-0.00006269,-0.00011436,-0.00000340,-
 0.00002482,-0.00000538,-0.00000364,-0.00001806,-0.00003338,0.,0.000002
 81,0.00002917,-0.00000106,-0.00001799,0.00002680,-0.00000524,-0.000220
 42,0.00211366,-0.00026198,0.00019472,-0.00024944,0.00011405,-0.0073235
 6,-0.00443201,0.00857487,-0.00023970,-0.00025883,-0.00002131,0.0000628
 1,-0.00003169,0.00001271,-0.00051498,-0.00064962,0.00032728,0.00011718
 ,0.00022821,-0.00000459,0.00089409,-0.00014767,0.00047958,0.00998760,-
 0.03116240,0.00544098,0.00112150,-0.00114709,0.00023727,-0.00039175,0.
 00019159,-0.00037442,0.00008104,0.00001562,-0.00003088,0.00001745,-0.0
 0008285,-0.00001240,-0.00001491,0.00003886,0.00006589,-0.00037062,0.00
 033858,-0.00006238,0.00009112,-0.00003025,0.00010482,0.00150953,0.0000
 3337,0.00101063,0.00000870,0.00003142,-0.00000506,-0.04860766,-0.18581
 265,0.03141892,-0.00876017,-0.01231262,-0.00444145,0.05231644,0.233262
 02,-0.00002543,0.00011113,-0.00001878,0.00009659,-0.00004548,0.0000287
 1,-0.00017298,0.00020088,-0.00008757,-0.00049710,0.00010730,-0.0002344
 8,0.00012361,-0.00010125,0.00003237,-0.00011802,-0.00008987,-0.0000043
 0,0.00000766,0.00000039,0.00000008,-0.00000677,-0.00000111,-0.00000053
 ,0.00000681,-0.00001150,-0.00000060,-0.00000458,0.00000058,-0.00000275
 ,0.00275800,0.00019881,-0.00063494,0.00037376,0.00010730,0.00010216,0.
 01678216,0.02060808,-0.01371256,0.00113220,-0.00043669,-0.00195925,-0.
 00000214,-0.00003875,0.00004137,-0.00044385,0.00018951,0.00010747,0.00
 003109,0.00008841,0.00014159,-0.00117330,0.00046911,-0.00024679,-0.000
 67657,0.00736140,0.00304673,-0.00033722,0.00021074,0.00017515,0.000301
 03,-0.00022579,0.00010592,-0.00006220,-0.00001442,0.00003028,-0.000001
 22,0.00005284,0.00001433,-0.00002312,-0.00000741,-0.00006044,-0.000597
 43,0.00061398,-0.00032341,-0.00005817,-0.00005393,-0.00014088,0.000515
 79,-0.00050187,0.00039144,-0.00008545,-0.00006377,-0.00001134,0.007038
 83,0.02855323,-0.03806257,-0.00721938,-0.01448826,0.00159019,-0.017879
 77,-0.04313428,0.05021277,-0.00005456,0.00028144,-0.00004282,0.0004485
 6,-0.00011852,0.00004490,-0.00043225,0.00037673,-0.00033500,-0.0012430
 8,0.00070917,0.00090001,0.00010835,-0.00004170,-0.00003036,-0.00010599
 ,-0.00021949,-0.00008950,-0.00005590,-0.00001292,0.00000216,-0.0000435
 2,-0.00007877,-0.00000261,0.00001213,0.00005941,0.00001367,-0.00005419
 ,0.00006393,0.00000289,-0.02200869,0.01501965,-0.01883139,0.00047713,-
 0.00145866,0.00023044,-0.08559206,-0.01567377,-0.08001225,-0.01455373,
 -0.01809159,-0.01142461,0.00047703,-0.00014030,0.00005254,-0.00029953,
 -0.00201221,0.00040831,0.00002032,0.00033521,0.00026730,-0.00057419,0.
 00037366,0.00039264,-0.00029605,0.00043746,0.00050404,-0.00003462,0.00
 002147,0.00005395,0.00010703,-0.00011100,-0.00000698,-0.00001100,-0.00
 000678,0.00002189,0.00000949,0.00001223,0.00000858,0.00000007,0.000002
 93,-0.00003310,0.00060461,0.00018490,-0.00012770,-0.00048211,-0.000141
 75,-0.00026948,-0.00030150,-0.00032342,0.00025018,-0.00003319,-0.00003
 826,-0.00000011,0.00700517,0.00100539,0.00846300,-0.00094950,-0.000079
 00,0.00131386,0.00027416,0.00006426,0.00021623,0.11758128,0.00001790,-
 0.00001573,0.00001223,0.00003164,0.00004671,0.00009878,0.00007069,-0.0
 0031776,-0.00004205,0.00188067,-0.00126479,-0.00122724,0.00012548,0.00
 017459,0.00006937,0.00010262,-0.00000058,0.00015357,-0.00003473,-0.000
 00825,-0.00002803,-0.00000128,-0.00003114,0.00000340,0.00001710,0.0000
 6502,-0.00003524,0.00000288,0.00002771,-0.00002556,0.01640630,0.000078
 09,0.01493822,-0.00078767,-0.00153953,0.00027410,-0.01542584,-0.037702
 83,-0.02122686,-0.02156760,-0.01536584,-0.01659366,-0.00035347,-0.0007
 9591,-0.00021401,-0.00021791,-0.00120297,-0.00071586,-0.00047985,-0.00
 024515,0.00067544,0.00021574,0.00010094,-0.00004061,0.00037123,-0.0003
 0187,-0.00063348,0.00003440,0.00000011,-0.00004239,-0.00008051,0.00003
 761,-0.00000424,0.00000968,0.00000829,-0.00000935,0.00000071,-0.000017
 77,0.00000159,0.00000404,-0.00000566,0.00001798,0.00011897,-0.00003046
 ,-0.00002529,-0.00010113,-0.00000564,-0.00003294,-0.00014915,-0.000119
 03,0.00007086,0.00001005,-0.00000485,0.00000027,0.00024134,0.00370749,
 -0.00276012,-0.00006025,0.00025036,-0.00006383,-0.00000112,0.00007623,
 0.00034091,0.01959967,0.05440262,-0.00004672,0.00030997,-0.00004616,0.
 00049075,-0.00009532,0.00016209,-0.00054551,0.00021165,-0.00018563,0.0
 0076640,-0.00027051,-0.00030305,0.00024138,0.00009047,0.00010221,-0.00
 007226,-0.00024998,0.00004596,-0.00007306,-0.00001860,-0.00002131,-0.0
 0004620,-0.00008965,-0.00000175,0.00001840,0.00009950,-0.00002133,-0.0
 0004219,0.00007655,-0.00002747,-0.01482828,0.01007668,-0.00418812,0.00
 044712,-0.00053729,-0.00017384,-0.07788388,-0.02116004,-0.13314275,-0.
 00792108,-0.00915204,0.00043604,0.00012939,-0.00024570,0.00039689,0.00
 021141,-0.00219229,-0.00000741,0.00041864,0.00060352,-0.00018473,0.000
 83263,0.00011433,0.00010673,0.00014219,-0.00085944,-0.00077061,-0.0000
 5518,-0.00001934,-0.00010813,-0.00035402,0.00019971,-0.00011334,0.0000
 6928,0.00001648,-0.00002902,0.00001475,-0.00006935,-0.00001739,0.00003
 691,0.00000740,0.00005446,-0.00021789,-0.00024128,-0.00020596,0.000072
 43,0.00004197,0.00011427,0.00021570,0.00020964,-0.00004870,0.00006490,
 0.00003719,0.00002594,-0.00141317,-0.00448164,-0.03602941,0.00124205,-
 0.00003435,-0.00229475,0.00002455,0.00055883,-0.00051968,0.09806016,0.
 02706288,0.17699563\\-0.00000152,0.00001794,-0.00000422,0.00001246,-0.
 00000313,0.00000245,-0.00001061,-0.00000708,-0.00000186,0.00000153,0.0
 0001566,-0.00000377,0.00001466,-0.00000417,0.00000378,-0.00001041,-0.0
 0000826,-0.00000209,0.00000036,0.00000069,-0.00000180,-0.00000284,0.00
 000250,-0.00000313,-0.00000157,0.00000074,-0.00000051,0.00000306,0.000
 00374,0.00000014,-0.00000519,-0.00000516,0.00000260,0.00000257,0.00000
 561,-0.00000348,-0.00000066,0.00000012,0.00000804,-0.00000009,-0.00000
 057,-0.00000318,-0.00000059,-0.00000049,0.00000083,0.00000210,0.000001
 70,-0.00000008,-0.00000221,-0.00000321,-0.00000189,-0.00000699,0.00000
 023,0.00000075,-0.00000172,-0.00000195,0.00000304,0.00000084,0.0000014
 6,-0.00000065,0.00000505,-0.00000470,-0.00000049,-0.00000064,-0.000002
 52,0.00000100,-0.00000042,-0.00000078,0.00000069,-0.00000153,-0.000002
 41,0.00000270,0.00000046,-0.00000419,-0.00000167,-0.00000036,-0.000001
 05,0.00000481,0.00000101,0.00000143,0.00000217,0.00000049,-0.00000170,
 0.00000216,0.00000292,0.00000151,-0.00000799,0.00000051,-0.00000013,0.
 00000246,0.00000035,-0.00000135,0.00000192,-0.00000104,-0.00000047,-0.
 00000276\\\@


 CHEMISTRY BEGAN BY SAYING IT WOULD CHANGE THE BASER
 METALS INTO GOLD.  BY NOT DOING THAT IT HAS DONE MUCH
 GREATER THINGS.  --  RALPH WALDO EMERSON
 Job cpu time:       0 days  0 hours  0 minutes 37.1 seconds.
 File lengths (MBytes):  RWF=    159 Int=      0 D2E=      0 Chk=     13 Scr=      1
 Normal termination of Gaussian 09 at Thu Aug 20 14:17:50 2020.
