 Entering Gaussian System, Link 0=g09
 Input=sm_claisen_PM6_toluene_water.com
 Output=sm_claisen_PM6_toluene_water.log
 Initial command:
 /apps/applications/gaussian/G09.D01/2/default/g09/l1.exe "/local/706952.1.40core-192G.q/Gau-313588.inp" -scrdir="/local/706952.1.40core-192G.q/"
 Entering Link 1 = /apps/applications/gaussian/G09.D01/2/default/g09/l1.exe PID=    313593.
  
 Copyright (c) 1988,1990,1992,1993,1995,1998,2003,2009,2013,
            Gaussian, Inc.  All Rights Reserved.
  
 This is part of the Gaussian(R) 09 program.  It is based on
 the Gaussian(R) 03 system (copyright 2003, Gaussian, Inc.),
 the Gaussian(R) 98 system (copyright 1998, Gaussian, Inc.),
 the Gaussian(R) 94 system (copyright 1995, Gaussian, Inc.),
 the Gaussian 92(TM) system (copyright 1992, Gaussian, Inc.),
 the Gaussian 90(TM) system (copyright 1990, Gaussian, Inc.),
 the Gaussian 88(TM) system (copyright 1988, Gaussian, Inc.),
 the Gaussian 86(TM) system (copyright 1986, Carnegie Mellon
 University), and the Gaussian 82(TM) system (copyright 1983,
 Carnegie Mellon University). Gaussian is a federally registered
 trademark of Gaussian, Inc.
  
 This software contains proprietary and confidential information,
 including trade secrets, belonging to Gaussian, Inc.
  
 This software is provided under written license and may be
 used, copied, transmitted, or stored only in accord with that
 written license.
  
 The following legend is applicable only to US Government
 contracts under FAR:
  
                    RESTRICTED RIGHTS LEGEND
  
 Use, reproduction and disclosure by the US Government is
 subject to restrictions as set forth in subparagraphs (a)
 and (c) of the Commercial Computer Software - Restricted
 Rights clause in FAR 52.227-19.
  
 Gaussian, Inc.
 340 Quinnipiac St., Bldg. 40, Wallingford CT 06492
  
  
 ---------------------------------------------------------------
 Warning -- This program may not be used in any manner that
 competes with the business of Gaussian, Inc. or will provide
 assistance to any competitor of Gaussian, Inc.  The licensee
 of this program is prohibited from giving any competitor of
 Gaussian, Inc. access to this program.  By using this program,
 the user acknowledges that Gaussian, Inc. is engaged in the
 business of creating and licensing software in the field of
 computational chemistry and represents and warrants to the
 licensee that it is not a competitor of Gaussian, Inc. and that
 it will not use this program in any manner prohibited above.
 ---------------------------------------------------------------
  

 Cite this work as:
 Gaussian 09, Revision D.01,
 M. J. Frisch, G. W. Trucks, H. B. Schlegel, G. E. Scuseria, 
 M. A. Robb, J. R. Cheeseman, G. Scalmani, V. Barone, B. Mennucci, 
 G. A. Petersson, H. Nakatsuji, M. Caricato, X. Li, H. P. Hratchian, 
 A. F. Izmaylov, J. Bloino, G. Zheng, J. L. Sonnenberg, M. Hada, 
 M. Ehara, K. Toyota, R. Fukuda, J. Hasegawa, M. Ishida, T. Nakajima, 
 Y. Honda, O. Kitao, H. Nakai, T. Vreven, J. A. Montgomery, Jr., 
 J. E. Peralta, F. Ogliaro, M. Bearpark, J. J. Heyd, E. Brothers, 
 K. N. Kudin, V. N. Staroverov, T. Keith, R. Kobayashi, J. Normand, 
 K. Raghavachari, A. Rendell, J. C. Burant, S. S. Iyengar, J. Tomasi, 
 M. Cossi, N. Rega, J. M. Millam, M. Klene, J. E. Knox, J. B. Cross, 
 V. Bakken, C. Adamo, J. Jaramillo, R. Gomperts, R. E. Stratmann, 
 O. Yazyev, A. J. Austin, R. Cammi, C. Pomelli, J. W. Ochterski, 
 R. L. Martin, K. Morokuma, V. G. Zakrzewski, G. A. Voth, 
 P. Salvador, J. J. Dannenberg, S. Dapprich, A. D. Daniels, 
 O. Farkas, J. B. Foresman, J. V. Ortiz, J. Cioslowski, 
 and D. J. Fox, Gaussian, Inc., Wallingford CT, 2013.
 
 ******************************************
 Gaussian 09:  ES64L-G09RevD.01 24-Apr-2013
                20-Aug-2020 
 ******************************************
 %nprocshared=4
 Will use up to    4 processors via shared memory.
 %chk=sm_claisen_PM6_toluene_water.chk
 ----------------------------------------------------------------------
 # opt freq pm6 scrf=(cpcm,solvent=water) geom=connectivity empiricaldi
 spersion=gd3
 ----------------------------------------------------------------------
 1/14=-1,18=20,19=15,26=1,38=1,57=2/1,3;
 2/9=110,12=2,17=6,18=5,40=1/2;
 3/5=2,16=1,25=1,41=3900000,70=2101,71=1,72=1,124=31/1,2,3;
 4/35=1/1;
 5/5=2,35=1,38=5,53=1/2;
 6/7=2,8=2,9=2,10=2,28=1/1;
 7//1,2,3,16;
 1/14=-1,18=20,19=15,26=1/3(2);
 2/9=110/2;
 99//99;
 2/9=110/2;
 3/5=2,16=1,25=1,41=3900000,70=2105,71=1,72=1,124=31,135=20/1,2,3;
 4/5=5,16=3,35=1/1;
 5/5=2,35=1,38=5,53=1/2;
 7//1,2,3,16;
 1/14=-1,18=20,19=15,26=1/3(-5);
 2/9=110/2;
 6/7=2,8=2,9=2,10=2,19=2,28=1/1;
 99/9=1/99;
 -------------------
 Title Card Required
 -------------------
 Symbolic Z-matrix:
 Charge =  0 Multiplicity = 1
 C                     2.81622   2.50258  -0.12777 
 C                     3.00346   1.14097  -0.07657 
 C                     1.88345   0.26098   0.01979 
 C                     0.57931   0.81892   0.06205 
 C                     0.41283   2.2338    0.00658 
 C                     1.50796   3.0586   -0.0863 
 H                     3.67074   3.17663  -0.20112 
 H                     4.01116   0.72626  -0.10951 
 H                    -0.60324   2.63464   0.04019 
 H                     1.39193   4.14061  -0.12908 
 C                    -0.5556   -0.07572   0.16023 
 C                     2.00311  -1.16557   0.07591 
 C                    -0.39484  -1.44532   0.21093 
 H                    -1.24508  -2.1202    0.2788 
 C                     0.91156  -1.99348   0.16805 
 H                     1.02666  -3.07861   0.2088 
 O                    -1.73395   0.60818   0.1887 
 Cl                    3.57805  -1.87288   0.0232 
 C                    -3.05459  -0.06567   0.28836 
 C                    -3.28931  -0.97981  -0.89162 
 H                    -3.9766   -1.80337  -0.68775 
 C                    -3.13663  -0.7864    1.62753 
 H                    -4.1755   -0.99247   1.91304 
 H                    -2.6042   -1.7467    1.62522 
 H                    -2.69455  -0.18129   2.43098 
 C                    -3.96481   1.16138   0.22053 
 H                    -3.72542   1.78173  -0.65436 
 H                    -5.01893   0.87143   0.14399 
 H                    -3.85248   1.80005   1.1052 
 C                    -2.74827  -0.79803  -2.09289 
 H                    -2.93844  -1.45005  -2.93482 
 H                    -2.06447   0.01152  -2.32239 
 

 GradGradGradGradGradGradGradGradGradGradGradGradGradGradGradGradGradGrad
 Berny optimization.
 Initialization pass.
                           ----------------------------
                           !    Initial Parameters    !
                           ! (Angstroms and Degrees)  !
 --------------------------                            --------------------------
 ! Name  Definition              Value          Derivative Info.                !
 --------------------------------------------------------------------------------
 ! R1    R(1,2)                  1.3754         estimate D2E/DX2                !
 ! R2    R(1,6)                  1.4221         estimate D2E/DX2                !
 ! R3    R(1,7)                  1.0908         estimate D2E/DX2                !
 ! R4    R(2,3)                  1.4276         estimate D2E/DX2                !
 ! R5    R(2,8)                  1.0902         estimate D2E/DX2                !
 ! R6    R(3,4)                  1.4191         estimate D2E/DX2                !
 ! R7    R(3,12)                 1.4327         estimate D2E/DX2                !
 ! R8    R(4,5)                  1.4257         estimate D2E/DX2                !
 ! R9    R(4,11)                 1.4485         estimate D2E/DX2                !
 ! R10   R(5,6)                  1.3741         estimate D2E/DX2                !
 ! R11   R(5,9)                  1.0928         estimate D2E/DX2                !
 ! R12   R(6,10)                 1.0891         estimate D2E/DX2                !
 ! R13   R(11,13)                1.3799         estimate D2E/DX2                !
 ! R14   R(11,17)                1.3627         estimate D2E/DX2                !
 ! R15   R(12,15)                1.3731         estimate D2E/DX2                !
 ! R16   R(12,18)                1.7273         estimate D2E/DX2                !
 ! R17   R(13,14)                1.0876         estimate D2E/DX2                !
 ! R18   R(13,15)                1.4174         estimate D2E/DX2                !
 ! R19   R(15,16)                1.092          estimate D2E/DX2                !
 ! R20   R(17,19)                1.486          estimate D2E/DX2                !
 ! R21   R(19,20)                1.511          estimate D2E/DX2                !
 ! R22   R(19,22)                1.523          estimate D2E/DX2                !
 ! R23   R(19,26)                1.5293         estimate D2E/DX2                !
 ! R24   R(20,21)                1.0919         estimate D2E/DX2                !
 ! R25   R(20,30)                1.33           estimate D2E/DX2                !
 ! R26   R(22,23)                1.0969         estimate D2E/DX2                !
 ! R27   R(22,24)                1.098          estimate D2E/DX2                !
 ! R28   R(22,25)                1.0987         estimate D2E/DX2                !
 ! R29   R(26,27)                1.0989         estimate D2E/DX2                !
 ! R30   R(26,28)                1.096          estimate D2E/DX2                !
 ! R31   R(26,29)                1.0969         estimate D2E/DX2                !
 ! R32   R(30,31)                1.0817         estimate D2E/DX2                !
 ! R33   R(30,32)                1.0843         estimate D2E/DX2                !
 ! A1    A(2,1,6)              120.7451         estimate D2E/DX2                !
 ! A2    A(2,1,7)              120.5042         estimate D2E/DX2                !
 ! A3    A(6,1,7)              118.7507         estimate D2E/DX2                !
 ! A4    A(1,2,3)              120.394          estimate D2E/DX2                !
 ! A5    A(1,2,8)              120.0855         estimate D2E/DX2                !
 ! A6    A(3,2,8)              119.5205         estimate D2E/DX2                !
 ! A7    A(2,3,4)              118.7273         estimate D2E/DX2                !
 ! A8    A(2,3,12)             123.4279         estimate D2E/DX2                !
 ! A9    A(4,3,12)             117.8449         estimate D2E/DX2                !
 ! A10   A(3,4,5)              119.7571         estimate D2E/DX2                !
 ! A11   A(3,4,11)             118.6352         estimate D2E/DX2                !
 ! A12   A(5,4,11)             121.6077         estimate D2E/DX2                !
 ! A13   A(4,5,6)              120.3473         estimate D2E/DX2                !
 ! A14   A(4,5,9)              118.125          estimate D2E/DX2                !
 ! A15   A(6,5,9)              121.5278         estimate D2E/DX2                !
 ! A16   A(1,6,5)              120.0293         estimate D2E/DX2                !
 ! A17   A(1,6,10)             119.0336         estimate D2E/DX2                !
 ! A18   A(5,6,10)             120.9371         estimate D2E/DX2                !
 ! A19   A(4,11,13)            121.6168         estimate D2E/DX2                !
 ! A20   A(4,11,17)            111.6512         estimate D2E/DX2                !
 ! A21   A(13,11,17)           126.7318         estimate D2E/DX2                !
 ! A22   A(3,12,15)            122.4528         estimate D2E/DX2                !
 ! A23   A(3,12,18)            118.8628         estimate D2E/DX2                !
 ! A24   A(15,12,18)           118.6843         estimate D2E/DX2                !
 ! A25   A(11,13,14)           121.8077         estimate D2E/DX2                !
 ! A26   A(11,13,15)           119.3475         estimate D2E/DX2                !
 ! A27   A(14,13,15)           118.8442         estimate D2E/DX2                !
 ! A28   A(12,15,13)           120.1028         estimate D2E/DX2                !
 ! A29   A(12,15,16)           121.1899         estimate D2E/DX2                !
 ! A30   A(13,15,16)           118.7073         estimate D2E/DX2                !
 ! A31   A(11,17,19)           122.8415         estimate D2E/DX2                !
 ! A32   A(17,19,20)           111.1022         estimate D2E/DX2                !
 ! A33   A(17,19,22)           108.7499         estimate D2E/DX2                !
 ! A34   A(17,19,26)            99.3313         estimate D2E/DX2                !
 ! A35   A(20,19,22)           113.0788         estimate D2E/DX2                !
 ! A36   A(20,19,26)           110.998          estimate D2E/DX2                !
 ! A37   A(22,19,26)           112.7456         estimate D2E/DX2                !
 ! A38   A(19,20,21)           114.0979         estimate D2E/DX2                !
 ! A39   A(19,20,30)           124.0197         estimate D2E/DX2                !
 ! A40   A(21,20,30)           121.8572         estimate D2E/DX2                !
 ! A41   A(19,22,23)           111.6404         estimate D2E/DX2                !
 ! A42   A(19,22,24)           112.6995         estimate D2E/DX2                !
 ! A43   A(19,22,25)           111.143          estimate D2E/DX2                !
 ! A44   A(23,22,24)           107.1872         estimate D2E/DX2                !
 ! A45   A(23,22,25)           107.1094         estimate D2E/DX2                !
 ! A46   A(24,22,25)           106.7447         estimate D2E/DX2                !
 ! A47   A(19,26,27)           111.0145         estimate D2E/DX2                !
 ! A48   A(19,26,28)           111.3021         estimate D2E/DX2                !
 ! A49   A(19,26,29)           111.7436         estimate D2E/DX2                !
 ! A50   A(27,26,28)           107.655          estimate D2E/DX2                !
 ! A51   A(27,26,29)           106.9251         estimate D2E/DX2                !
 ! A52   A(28,26,29)           107.9913         estimate D2E/DX2                !
 ! A53   A(20,30,31)           123.3053         estimate D2E/DX2                !
 ! A54   A(20,30,32)           123.3524         estimate D2E/DX2                !
 ! A55   A(31,30,32)           113.3389         estimate D2E/DX2                !
 ! D1    D(6,1,2,3)             -0.02           estimate D2E/DX2                !
 ! D2    D(6,1,2,8)            179.9764         estimate D2E/DX2                !
 ! D3    D(7,1,2,3)            179.9827         estimate D2E/DX2                !
 ! D4    D(7,1,2,8)             -0.0209         estimate D2E/DX2                !
 ! D5    D(2,1,6,5)              0.0324         estimate D2E/DX2                !
 ! D6    D(2,1,6,10)          -179.9735         estimate D2E/DX2                !
 ! D7    D(7,1,6,5)           -179.9702         estimate D2E/DX2                !
 ! D8    D(7,1,6,10)             0.0239         estimate D2E/DX2                !
 ! D9    D(1,2,3,4)             -0.0304         estimate D2E/DX2                !
 ! D10   D(1,2,3,12)           179.9322         estimate D2E/DX2                !
 ! D11   D(8,2,3,4)            179.9731         estimate D2E/DX2                !
 ! D12   D(8,2,3,12)            -0.0642         estimate D2E/DX2                !
 ! D13   D(2,3,4,5)              0.0685         estimate D2E/DX2                !
 ! D14   D(2,3,4,11)          -179.9818         estimate D2E/DX2                !
 ! D15   D(12,3,4,5)          -179.8963         estimate D2E/DX2                !
 ! D16   D(12,3,4,11)            0.0534         estimate D2E/DX2                !
 ! D17   D(2,3,12,15)         -179.9765         estimate D2E/DX2                !
 ! D18   D(2,3,12,18)           -0.0814         estimate D2E/DX2                !
 ! D19   D(4,3,12,15)           -0.0135         estimate D2E/DX2                !
 ! D20   D(4,3,12,18)          179.8815         estimate D2E/DX2                !
 ! D21   D(3,4,5,6)             -0.0573         estimate D2E/DX2                !
 ! D22   D(3,4,5,9)            179.9494         estimate D2E/DX2                !
 ! D23   D(11,4,5,6)           179.9946         estimate D2E/DX2                !
 ! D24   D(11,4,5,9)             0.0013         estimate D2E/DX2                !
 ! D25   D(3,4,11,13)           -0.0951         estimate D2E/DX2                !
 ! D26   D(3,4,11,17)         -179.9226         estimate D2E/DX2                !
 ! D27   D(5,4,11,13)          179.8536         estimate D2E/DX2                !
 ! D28   D(5,4,11,17)            0.0261         estimate D2E/DX2                !
 ! D29   D(4,5,6,1)              0.0067         estimate D2E/DX2                !
 ! D30   D(4,5,6,10)          -179.9873         estimate D2E/DX2                !
 ! D31   D(9,5,6,1)            179.9997         estimate D2E/DX2                !
 ! D32   D(9,5,6,10)             0.0057         estimate D2E/DX2                !
 ! D33   D(4,11,13,14)        -179.6362         estimate D2E/DX2                !
 ! D34   D(4,11,13,15)           0.0922         estimate D2E/DX2                !
 ! D35   D(17,11,13,14)          0.1638         estimate D2E/DX2                !
 ! D36   D(17,11,13,15)        179.8922         estimate D2E/DX2                !
 ! D37   D(4,11,17,19)        -179.9021         estimate D2E/DX2                !
 ! D38   D(13,11,17,19)          0.2812         estimate D2E/DX2                !
 ! D39   D(3,12,15,13)           0.0102         estimate D2E/DX2                !
 ! D40   D(3,12,15,16)         179.9571         estimate D2E/DX2                !
 ! D41   D(18,12,15,13)       -179.885          estimate D2E/DX2                !
 ! D42   D(18,12,15,16)          0.0619         estimate D2E/DX2                !
 ! D43   D(11,13,15,12)         -0.0493         estimate D2E/DX2                !
 ! D44   D(11,13,15,16)       -179.9975         estimate D2E/DX2                !
 ! D45   D(14,13,15,12)        179.6872         estimate D2E/DX2                !
 ! D46   D(14,13,15,16)         -0.2609         estimate D2E/DX2                !
 ! D47   D(11,17,19,20)        -60.928          estimate D2E/DX2                !
 ! D48   D(11,17,19,22)         64.152          estimate D2E/DX2                !
 ! D49   D(11,17,19,26)       -177.8422         estimate D2E/DX2                !
 ! D50   D(17,19,20,21)        154.2387         estimate D2E/DX2                !
 ! D51   D(17,19,20,30)        -27.558          estimate D2E/DX2                !
 ! D52   D(22,19,20,21)         31.6263         estimate D2E/DX2                !
 ! D53   D(22,19,20,30)       -150.1704         estimate D2E/DX2                !
 ! D54   D(26,19,20,21)        -96.2324         estimate D2E/DX2                !
 ! D55   D(26,19,20,30)         81.9709         estimate D2E/DX2                !
 ! D56   D(17,19,22,23)        159.7557         estimate D2E/DX2                !
 ! D57   D(17,19,22,24)        -79.5437         estimate D2E/DX2                !
 ! D58   D(17,19,22,25)         40.2321         estimate D2E/DX2                !
 ! D59   D(20,19,22,23)        -76.3317         estimate D2E/DX2                !
 ! D60   D(20,19,22,24)         44.3688         estimate D2E/DX2                !
 ! D61   D(20,19,22,25)        164.1446         estimate D2E/DX2                !
 ! D62   D(26,19,22,23)         50.6094         estimate D2E/DX2                !
 ! D63   D(26,19,22,24)        171.3099         estimate D2E/DX2                !
 ! D64   D(26,19,22,25)        -68.9142         estimate D2E/DX2                !
 ! D65   D(17,19,26,27)         52.4694         estimate D2E/DX2                !
 ! D66   D(17,19,26,28)        172.3709         estimate D2E/DX2                !
 ! D67   D(17,19,26,29)        -66.8031         estimate D2E/DX2                !
 ! D68   D(20,19,26,27)        -64.5236         estimate D2E/DX2                !
 ! D69   D(20,19,26,28)         55.3779         estimate D2E/DX2                !
 ! D70   D(20,19,26,29)        176.2038         estimate D2E/DX2                !
 ! D71   D(22,19,26,27)        167.4371         estimate D2E/DX2                !
 ! D72   D(22,19,26,28)        -72.6614         estimate D2E/DX2                !
 ! D73   D(22,19,26,29)         48.1645         estimate D2E/DX2                !
 ! D74   D(19,20,30,31)       -178.858          estimate D2E/DX2                !
 ! D75   D(19,20,30,32)          1.8525         estimate D2E/DX2                !
 ! D76   D(21,20,30,31)         -0.7891         estimate D2E/DX2                !
 ! D77   D(21,20,30,32)        179.9215         estimate D2E/DX2                !
 --------------------------------------------------------------------------------
 Trust Radius=3.00D-01 FncErr=1.00D-07 GrdErr=1.00D-07
 Number of steps in this run=    175 maximum allowed number of steps=    192.
 GradGradGradGradGradGradGradGradGradGradGradGradGradGradGradGradGradGrad

                          Input orientation:                          
 ---------------------------------------------------------------------
 Center     Atomic      Atomic             Coordinates (Angstroms)
 Number     Number       Type             X           Y           Z
 ---------------------------------------------------------------------
      1          6           0        2.816222    2.502575   -0.127767
      2          6           0        3.003456    1.140966   -0.076570
      3          6           0        1.883446    0.260984    0.019789
      4          6           0        0.579305    0.818923    0.062051
      5          6           0        0.412825    2.233795    0.006584
      6          6           0        1.507964    3.058602   -0.086300
      7          1           0        3.670742    3.176634   -0.201119
      8          1           0        4.011160    0.726264   -0.109505
      9          1           0       -0.603237    2.634642    0.040191
     10          1           0        1.391934    4.140609   -0.129084
     11          6           0       -0.555601   -0.075721    0.160226
     12          6           0        2.003112   -1.165566    0.075910
     13          6           0       -0.394838   -1.445321    0.210928
     14          1           0       -1.245076   -2.120200    0.278796
     15          6           0        0.911559   -1.993475    0.168046
     16          1           0        1.026663   -3.078611    0.208799
     17          8           0       -1.733947    0.608175    0.188700
     18         17           0        3.578051   -1.872882    0.023200
     19          6           0       -3.054591   -0.065670    0.288355
     20          6           0       -3.289306   -0.979808   -0.891617
     21          1           0       -3.976604   -1.803370   -0.687751
     22          6           0       -3.136630   -0.786404    1.627531
     23          1           0       -4.175502   -0.992465    1.913043
     24          1           0       -2.604202   -1.746696    1.625219
     25          1           0       -2.694550   -0.181288    2.430981
     26          6           0       -3.964805    1.161383    0.220527
     27          1           0       -3.725415    1.781730   -0.654358
     28          1           0       -5.018930    0.871428    0.143986
     29          1           0       -3.852476    1.800046    1.105203
     30          6           0       -2.748266   -0.798030   -2.092892
     31          1           0       -2.938439   -1.450049   -2.934822
     32          1           0       -2.064472    0.011518   -2.322392
 ---------------------------------------------------------------------
                    Distance matrix (angstroms):
                    1          2          3          4          5
     1  C    0.000000
     2  C    1.375375   0.000000
     3  C    2.432401   1.427612   0.000000
     4  C    2.806156   2.449375   1.419107   0.000000
     5  C    2.422109   2.812927   2.460667   1.425712   0.000000
     6  C    1.422120   2.431855   2.824696   2.429110   1.374141
     7  H    1.090844   2.145863   3.426987   3.896799   3.397957
     8  H    2.140909   1.090197   2.181827   3.437389   3.903094
     9  H    3.426128   3.905501   3.437770   2.166961   1.092790
    10  H    2.170657   3.405528   3.913469   3.424981   2.147790
    11  C    4.254379   3.768725   2.466180   1.448461   2.509047
    12  C    3.762697   2.518735   1.432660   2.442461   3.753595
    13  C    5.100147   4.280180   2.852821   2.469397   3.772263
    14  H    6.166805   5.367636   3.940149   3.466091   4.666906
    15  C    4.891800   3.776320   2.459498   2.833939   4.259650
    16  H    5.870727   4.668402   3.452926   3.925867   5.351574
    17  O    4.938921   4.774644   3.637940   2.326282   2.698970
    18  Cl   4.443850   3.069755   2.724900   4.029864   5.184952
    19  C    6.421486   6.187817   4.956111   3.746854   4.170121
    20  C    7.070214   6.690354   5.396998   4.371621   4.983953
    21  H    8.062086   7.600256   6.253188   5.309890   6.003989
    22  C    7.023881   6.657280   5.374292   4.340043   4.934339
    23  H    8.078639   7.749034   6.470425   5.414378   5.924195
    24  H    7.107057   6.533032   5.171767   4.377284   5.250404
    25  H    6.642207   6.364231   5.193024   4.162977   4.622349
    26  C    6.921158   6.974621   5.920562   4.559751   4.512148
    27  H    6.602267   6.783961   5.850339   4.468876   4.215001
    28  H    8.007752   8.029942   6.930430   5.599081   5.601686
    29  H    6.818013   6.988188   6.037188   4.657408   4.425821
    30  C    6.761600   6.395902   5.199778   4.281477   4.857186
    31  H    7.524554   7.084425   5.908294   5.148204   5.783904
    32  H    5.902789   5.657143   4.597184   3.650620   4.061975
                    6          7          8          9         10
     6  C    0.000000
     7  H    2.169037   0.000000
     8  H    3.421451   2.475599   0.000000
     9  H    2.157061   4.314960   4.995696   0.000000
    10  H    1.089051   2.475359   4.303310   2.505454   0.000000
    11  C    3.760725   5.345125   4.644485   2.713438   4.653389
    12  C    4.256181   4.659660   2.765078   4.608244   5.345190
    13  C    4.898400   6.169375   4.922528   4.088848   5.874587
    14  H    5.876437   7.242378   5.990088   4.803896   6.805727
    15  C    5.093513   5.871916   4.132982   4.871388   6.160035
    16  H    6.163126   6.803475   4.846196   5.943590   7.236348
    17  O    4.073107   5.996633   5.754053   2.325323   4.727601
    18  Cl   5.349466   5.055346   2.638324   6.148271   6.400342
    19  C    5.542414   7.482127   7.121116   3.655463   6.135032
    20  C    6.322269   8.136035   7.537850   4.598639   6.979551
    21  H    7.353979   9.138881   8.398678   5.621873   8.028960
    22  C    6.268456   8.086405   7.509751   4.543268   6.918746
    23  H    7.260186   9.133160   8.606170   5.424441   7.843155
    24  H    6.552106   8.182274   7.272401   5.070729   7.328509
    25  H    5.873220   7.662932   7.228020   4.244871   6.475498
    26  C    5.800412   7.908261   7.994640   3.674664   6.139435
    27  H    5.416765   7.540180   7.827226   3.310265   5.659283
    28  H    6.887460   8.996859   9.034814   4.755843   7.201478
    29  H    5.633645   7.758884   8.029028   3.519710   5.874141
    30  C    6.084038   7.783343   7.207436   4.575416   6.737058
    31  H    6.943523   8.518251   7.811253   5.566738   7.607874
    32  H    5.200685   6.885524   6.505462   3.820705   5.814356
                   11         12         13         14         15
    11  C    0.000000
    12  C    2.782424   0.000000
    13  C    1.379935   2.417986   0.000000
    14  H    2.160863   3.391639   1.087645   0.000000
    15  C    2.414622   1.373102   1.417387   2.163192   0.000000
    16  H    3.394594   2.151942   2.165250   2.466627   1.091984
    17  O    1.362727   4.138175   2.451643   2.773291   3.710487
    18  Cl   4.509506   1.727283   4.000237   4.836223   2.673145
    19  C    2.502293   5.180276   2.997285   2.737796   4.411491
    20  C    3.065435   5.383336   3.132132   2.617105   4.449458
    21  H    3.925188   6.061928   3.710104   2.914762   4.966152
    22  C    3.052829   5.382215   3.155687   2.678820   4.469335
    23  H    4.125102   6.448278   4.170815   3.539766   5.470395
    24  H    3.022437   4.895448   2.640518   1.949252   3.813768
    25  H    3.121310   5.346325   3.437309   3.239175   4.626977
    26  C    3.627221   6.407155   4.420369   4.262524   5.808167
    27  H    3.763163   6.483507   4.717555   4.716770   6.035731
    28  H    4.562747   7.311843   5.172430   4.817674   6.586270
    29  H    3.909075   6.643960   4.825702   4.780148   6.161582
    30  C    3.225841   5.235874   3.356366   3.103646   4.464891
    31  H    4.140775   5.793476   4.045451   3.693768   4.974494
    32  H    2.906492   4.866479   3.365675   3.461475   4.367956
                   16         17         18         19         20
    16  H    0.000000
    17  O    4.605840   0.000000
    18  Cl   2.828040   5.865182   0.000000
    19  C    5.073537   1.485967   6.879554   0.000000
    20  C    4.923767   2.471420   6.985346   1.510984   0.000000
    21  H    5.240489   3.407818   7.588353   2.196017   1.091876
    22  C    4.959841   2.445936   6.988652   1.523017   2.531170
    23  H    5.858240   3.390663   8.028962   2.180597   2.941364
    24  H    4.118668   2.892464   6.387694   2.194517   2.718814
    25  H    5.213444   2.563949   6.928522   2.175740   3.468577
    26  C    6.549232   2.298647   8.132674   1.529297   2.505566
    27  H    6.852022   2.460472   8.194870   2.179816   2.805811
    28  H    7.221925   3.295818   9.025182   2.181198   2.736996
    29  H    6.957789   2.597826   8.359059   2.187409   3.468723
    30  C    4.974829   2.865644   6.756881   2.510084   1.329973
    31  H    5.315694   3.929819   7.168914   3.509824   2.125775
    32  H    5.050836   2.602082   6.394594   2.793259   2.128394
                   21         22         23         24         25
    21  H    0.000000
    22  C    2.664640   0.000000
    23  H    2.731530   1.096920   0.000000
    24  H    2.690080   1.098019   1.766548   0.000000
    25  H    3.741831   1.098696   1.766207   1.762929   0.000000
    26  C    3.100785   2.541537   2.747374   3.504472   2.881392
    27  H    3.594044   3.485541   3.806611   4.347802   3.799400
    28  H    2.988775   2.914166   2.704631   3.857400   3.426558
    29  H    4.026748   2.734042   2.924905   3.795785   2.650314
    30  C    2.119892   3.740656   4.257032   3.839931   4.566036
    31  H    2.500390   4.614626   5.024092   4.581887   5.519156
    32  H    3.101954   4.169903   4.837700   4.355027   4.798826
                   26         27         28         29         30
    26  C    0.000000
    27  H    1.098891   0.000000
    28  H    1.095953   1.771774   0.000000
    29  H    1.096886   1.764238   1.773946   0.000000
    30  C    3.266676   3.111167   3.598142   4.265805   0.000000
    31  H    4.222467   4.032895   4.381410   5.265015   1.081730
    32  H    3.376373   2.945288   3.943512   4.259601   1.084257
                   31         32
    31  H    0.000000
    32  H    1.809715   0.000000
 Stoichiometry    C15H15ClO
 Framework group  C1[X(C15H15ClO)]
 Deg. of freedom    90
 Full point group                 C1      NOp   1
 Largest Abelian subgroup         C1      NOp   1
 Largest concise Abelian subgroup C1      NOp   1
                         Standard orientation:                         
 ---------------------------------------------------------------------
 Center     Atomic      Atomic             Coordinates (Angstroms)
 Number     Number       Type             X           Y           Z
 ---------------------------------------------------------------------
      1          6           0       -2.816222    2.502575    0.127767
      2          6           0       -3.003456    1.140966    0.076570
      3          6           0       -1.883446    0.260984   -0.019789
      4          6           0       -0.579305    0.818923   -0.062051
      5          6           0       -0.412825    2.233795   -0.006584
      6          6           0       -1.507964    3.058602    0.086300
      7          1           0       -3.670742    3.176634    0.201119
      8          1           0       -4.011160    0.726264    0.109505
      9          1           0        0.603237    2.634642   -0.040191
     10          1           0       -1.391934    4.140609    0.129084
     11          6           0        0.555601   -0.075721   -0.160226
     12          6           0       -2.003112   -1.165566   -0.075910
     13          6           0        0.394838   -1.445321   -0.210928
     14          1           0        1.245076   -2.120200   -0.278796
     15          6           0       -0.911559   -1.993475   -0.168046
     16          1           0       -1.026663   -3.078611   -0.208799
     17          8           0        1.733947    0.608175   -0.188700
     18         17           0       -3.578051   -1.872882   -0.023200
     19          6           0        3.054591   -0.065670   -0.288355
     20          6           0        3.289306   -0.979808    0.891617
     21          1           0        3.976604   -1.803370    0.687751
     22          6           0        3.136630   -0.786404   -1.627531
     23          1           0        4.175502   -0.992465   -1.913043
     24          1           0        2.604202   -1.746696   -1.625219
     25          1           0        2.694550   -0.181288   -2.430981
     26          6           0        3.964805    1.161383   -0.220527
     27          1           0        3.725415    1.781730    0.654358
     28          1           0        5.018930    0.871428   -0.143986
     29          1           0        3.852476    1.800046   -1.105203
     30          6           0        2.748266   -0.798030    2.092892
     31          1           0        2.938439   -1.450049    2.934822
     32          1           0        2.064472    0.011518    2.322392
 ---------------------------------------------------------------------
 Rotational constants (GHZ):      0.6982938      0.2884429      0.2273496
 Standard basis: VSTO-6G (5D, 7F)
 There are    89 symmetry adapted cartesian basis functions of A   symmetry.
 There are    88 symmetry adapted basis functions of A   symmetry.
    88 basis functions,   534 primitive gaussians,    89 cartesian basis functions
    44 alpha electrons       44 beta electrons
       nuclear repulsion energy       645.0004036976 Hartrees.
 Integral buffers will be    131072 words long.
 Regular integral format.
 Two-electron integral symmetry is turned off.
 Nuclear repulsion after empirical dispersion term =      644.9900559107 Hartrees.
 ------------------------------------------------------------------------------
 Polarizable Continuum Model (PCM)
 =================================
 Model                : C-PCM.
 Atomic radii         : UFF (Universal Force Field).
 Polarization charges : Total charges.
 Charge compensation  : None.
 Solution method      : On-the-fly selection.
 Cavity type          : Scaled VdW (van der Waals Surface) (Alpha=1.100).
 Cavity algorithm     : GePol (No added spheres)
                        Default sphere list used, NSphG=   32.
                        Lebedev-Laikov grids with approx.  5.0 points / Ang**2.
                        Smoothing algorithm: Karplus/York (Gamma=1.0000).
                        Polarization charges: spherical gaussians, with
                                              point-specific exponents (IZeta= 3).
                        Self-potential: point-specific (ISelfS= 7).
                        Self-field    : sphere-specific E.n sum rule (ISelfD= 2).
 1st derivatives      : Analytical E(r).r(x)/FMM algorithm (CHGder, D1EAlg=3).
                        Cavity 1st derivative terms included.
 Solvent              : Water, Eps=  78.355300 Eps(inf)=   1.777849
 ------------------------------------------------------------------------------
 Do NDO integrals.
 One-electron integrals computed using PRISM.
 PrsmSu:  requested number of processors reduced to:   2 ShMem   1 Linda.
 NBasis=    88 RedAO= F EigKep=  0.00D+00  NBF=    88
 NBsUse=    88 1.00D-04 EigRej=  0.00D+00 NBFU=    88
 Nonelectrostatic core Hamiltonian diagonalized for initial guess.
 Overlap will be assumed to be unity.
 Keep J ints in memory in canonical form, NReq=10310485.
 Requested convergence on RMS density matrix=1.00D-08 within 128 cycles.
 Requested convergence on MAX density matrix=1.00D-06.
 Requested convergence on             energy=1.00D-06.
 No special actions if energy rises.
 Inv3:  Mode=1 IEnd=    17222448.
 Iteration    1 A*A^-1 deviation from unit magnitude is 7.55D-15 for   2378.
 Iteration    1 A*A^-1 deviation from orthogonality  is 2.91D-15 for   1793    584.
 Iteration    1 A^-1*A deviation from unit magnitude is 7.55D-15 for   2378.
 Iteration    1 A^-1*A deviation from orthogonality  is 1.63D-15 for   1683    339.
 Error on total polarization charges = -0.00004
 SCF Done:  E(RPM6D3) = -0.291301839882E-01 A.U. after   21 cycles
            NFock= 20  Conv=0.70D-08     -V/T= 0.9995

 **********************************************************************

            Population analysis using the SCF density.

 **********************************************************************

 Orbital symmetries:
       Occupied  (A) (A) (A) (A) (A) (A) (A) (A) (A) (A) (A) (A)
                 (A) (A) (A) (A) (A) (A) (A) (A) (A) (A) (A) (A)
                 (A) (A) (A) (A) (A) (A) (A) (A) (A) (A) (A) (A)
                 (A) (A) (A) (A) (A) (A) (A) (A)
       Virtual   (A) (A) (A) (A) (A) (A) (A) (A) (A) (A) (A) (A)
                 (A) (A) (A) (A) (A) (A) (A) (A) (A) (A) (A) (A)
                 (A) (A) (A) (A) (A) (A) (A) (A) (A) (A) (A) (A)
                 (A) (A) (A) (A) (A) (A) (A) (A)
 The electronic state is 1-A.
 Alpha  occ. eigenvalues --   -1.13464  -1.12324  -1.08076  -1.06375  -1.00559
 Alpha  occ. eigenvalues --   -0.97630  -0.96426  -0.95955  -0.92643  -0.89672
 Alpha  occ. eigenvalues --   -0.82544  -0.81670  -0.79401  -0.77802  -0.71925
 Alpha  occ. eigenvalues --   -0.66331  -0.65569  -0.63523  -0.61277  -0.60356
 Alpha  occ. eigenvalues --   -0.58190  -0.56182  -0.55220  -0.54713  -0.54404
 Alpha  occ. eigenvalues --   -0.53719  -0.52529  -0.51135  -0.50545  -0.49439
 Alpha  occ. eigenvalues --   -0.49333  -0.48759  -0.47582  -0.46969  -0.46114
 Alpha  occ. eigenvalues --   -0.44782  -0.44708  -0.43252  -0.41247  -0.40960
 Alpha  occ. eigenvalues --   -0.39257  -0.38100  -0.36358  -0.32011
 Alpha virt. eigenvalues --   -0.02697  -0.01815   0.01893   0.02238   0.02750
 Alpha virt. eigenvalues --    0.04888   0.05274   0.09047   0.11767   0.12629
 Alpha virt. eigenvalues --    0.12940   0.13239   0.13650   0.14547   0.14947
 Alpha virt. eigenvalues --    0.15404   0.15770   0.16399   0.17024   0.17131
 Alpha virt. eigenvalues --    0.18233   0.18880   0.19644   0.19750   0.19996
 Alpha virt. eigenvalues --    0.20347   0.20555   0.20559   0.20643   0.20866
 Alpha virt. eigenvalues --    0.21095   0.21652   0.22020   0.22115   0.22134
 Alpha virt. eigenvalues --    0.22449   0.22959   0.24032   0.24488   3.24391
 Alpha virt. eigenvalues --    3.24405   3.24618   3.25415   3.25468
          Condensed to atoms (all electrons):
               1          2          3          4          5          6
     1  C    4.084448   0.000000   0.000000   0.000000   0.000000   0.000000
     2  C    0.000000   4.216169   0.000000   0.000000   0.000000   0.000000
     3  C    0.000000   0.000000   3.908091   0.000000   0.000000   0.000000
     4  C    0.000000   0.000000   0.000000   4.146830   0.000000   0.000000
     5  C    0.000000   0.000000   0.000000   0.000000   4.084064   0.000000
     6  C    0.000000   0.000000   0.000000   0.000000   0.000000   4.194543
     7  H    0.000000   0.000000   0.000000   0.000000   0.000000   0.000000
     8  H    0.000000   0.000000   0.000000   0.000000   0.000000   0.000000
     9  H    0.000000   0.000000   0.000000   0.000000   0.000000   0.000000
    10  H    0.000000   0.000000   0.000000   0.000000   0.000000   0.000000
    11  C    0.000000   0.000000   0.000000   0.000000   0.000000   0.000000
    12  C    0.000000   0.000000   0.000000   0.000000   0.000000   0.000000
    13  C    0.000000   0.000000   0.000000   0.000000   0.000000   0.000000
    14  H    0.000000   0.000000   0.000000   0.000000   0.000000   0.000000
    15  C    0.000000   0.000000   0.000000   0.000000   0.000000   0.000000
    16  H    0.000000   0.000000   0.000000   0.000000   0.000000   0.000000
    17  O    0.000000   0.000000   0.000000   0.000000   0.000000   0.000000
    18  Cl   0.000000   0.000000   0.000000   0.000000   0.000000   0.000000
    19  C    0.000000   0.000000   0.000000   0.000000   0.000000   0.000000
    20  C    0.000000   0.000000   0.000000   0.000000   0.000000   0.000000
    21  H    0.000000   0.000000   0.000000   0.000000   0.000000   0.000000
    22  C    0.000000   0.000000   0.000000   0.000000   0.000000   0.000000
    23  H    0.000000   0.000000   0.000000   0.000000   0.000000   0.000000
    24  H    0.000000   0.000000   0.000000   0.000000   0.000000   0.000000
    25  H    0.000000   0.000000   0.000000   0.000000   0.000000   0.000000
    26  C    0.000000   0.000000   0.000000   0.000000   0.000000   0.000000
    27  H    0.000000   0.000000   0.000000   0.000000   0.000000   0.000000
    28  H    0.000000   0.000000   0.000000   0.000000   0.000000   0.000000
    29  H    0.000000   0.000000   0.000000   0.000000   0.000000   0.000000
    30  C    0.000000   0.000000   0.000000   0.000000   0.000000   0.000000
    31  H    0.000000   0.000000   0.000000   0.000000   0.000000   0.000000
    32  H    0.000000   0.000000   0.000000   0.000000   0.000000   0.000000
               7          8          9         10         11         12
     1  C    0.000000   0.000000   0.000000   0.000000   0.000000   0.000000
     2  C    0.000000   0.000000   0.000000   0.000000   0.000000   0.000000
     3  C    0.000000   0.000000   0.000000   0.000000   0.000000   0.000000
     4  C    0.000000   0.000000   0.000000   0.000000   0.000000   0.000000
     5  C    0.000000   0.000000   0.000000   0.000000   0.000000   0.000000
     6  C    0.000000   0.000000   0.000000   0.000000   0.000000   0.000000
     7  H    0.843946   0.000000   0.000000   0.000000   0.000000   0.000000
     8  H    0.000000   0.828587   0.000000   0.000000   0.000000   0.000000
     9  H    0.000000   0.000000   0.833829   0.000000   0.000000   0.000000
    10  H    0.000000   0.000000   0.000000   0.835618   0.000000   0.000000
    11  C    0.000000   0.000000   0.000000   0.000000   3.635785   0.000000
    12  C    0.000000   0.000000   0.000000   0.000000   0.000000   4.118911
    13  C    0.000000   0.000000   0.000000   0.000000   0.000000   0.000000
    14  H    0.000000   0.000000   0.000000   0.000000   0.000000   0.000000
    15  C    0.000000   0.000000   0.000000   0.000000   0.000000   0.000000
    16  H    0.000000   0.000000   0.000000   0.000000   0.000000   0.000000
    17  O    0.000000   0.000000   0.000000   0.000000   0.000000   0.000000
    18  Cl   0.000000   0.000000   0.000000   0.000000   0.000000   0.000000
    19  C    0.000000   0.000000   0.000000   0.000000   0.000000   0.000000
    20  C    0.000000   0.000000   0.000000   0.000000   0.000000   0.000000
    21  H    0.000000   0.000000   0.000000   0.000000   0.000000   0.000000
    22  C    0.000000   0.000000   0.000000   0.000000   0.000000   0.000000
    23  H    0.000000   0.000000   0.000000   0.000000   0.000000   0.000000
    24  H    0.000000   0.000000   0.000000   0.000000   0.000000   0.000000
    25  H    0.000000   0.000000   0.000000   0.000000   0.000000   0.000000
    26  C    0.000000   0.000000   0.000000   0.000000   0.000000   0.000000
    27  H    0.000000   0.000000   0.000000   0.000000   0.000000   0.000000
    28  H    0.000000   0.000000   0.000000   0.000000   0.000000   0.000000
    29  H    0.000000   0.000000   0.000000   0.000000   0.000000   0.000000
    30  C    0.000000   0.000000   0.000000   0.000000   0.000000   0.000000
    31  H    0.000000   0.000000   0.000000   0.000000   0.000000   0.000000
    32  H    0.000000   0.000000   0.000000   0.000000   0.000000   0.000000
              13         14         15         16         17         18
     1  C    0.000000   0.000000   0.000000   0.000000   0.000000   0.000000
     2  C    0.000000   0.000000   0.000000   0.000000   0.000000   0.000000
     3  C    0.000000   0.000000   0.000000   0.000000   0.000000   0.000000
     4  C    0.000000   0.000000   0.000000   0.000000   0.000000   0.000000
     5  C    0.000000   0.000000   0.000000   0.000000   0.000000   0.000000
     6  C    0.000000   0.000000   0.000000   0.000000   0.000000   0.000000
     7  H    0.000000   0.000000   0.000000   0.000000   0.000000   0.000000
     8  H    0.000000   0.000000   0.000000   0.000000   0.000000   0.000000
     9  H    0.000000   0.000000   0.000000   0.000000   0.000000   0.000000
    10  H    0.000000   0.000000   0.000000   0.000000   0.000000   0.000000
    11  C    0.000000   0.000000   0.000000   0.000000   0.000000   0.000000
    12  C    0.000000   0.000000   0.000000   0.000000   0.000000   0.000000
    13  C    4.396359   0.000000   0.000000   0.000000   0.000000   0.000000
    14  H    0.000000   0.807078   0.000000   0.000000   0.000000   0.000000
    15  C    0.000000   0.000000   4.033234   0.000000   0.000000   0.000000
    16  H    0.000000   0.000000   0.000000   0.835367   0.000000   0.000000
    17  O    0.000000   0.000000   0.000000   0.000000   6.460091   0.000000
    18  Cl   0.000000   0.000000   0.000000   0.000000   0.000000   7.103799
    19  C    0.000000   0.000000   0.000000   0.000000   0.000000   0.000000
    20  C    0.000000   0.000000   0.000000   0.000000   0.000000   0.000000
    21  H    0.000000   0.000000   0.000000   0.000000   0.000000   0.000000
    22  C    0.000000   0.000000   0.000000   0.000000   0.000000   0.000000
    23  H    0.000000   0.000000   0.000000   0.000000   0.000000   0.000000
    24  H    0.000000   0.000000   0.000000   0.000000   0.000000   0.000000
    25  H    0.000000   0.000000   0.000000   0.000000   0.000000   0.000000
    26  C    0.000000   0.000000   0.000000   0.000000   0.000000   0.000000
    27  H    0.000000   0.000000   0.000000   0.000000   0.000000   0.000000
    28  H    0.000000   0.000000   0.000000   0.000000   0.000000   0.000000
    29  H    0.000000   0.000000   0.000000   0.000000   0.000000   0.000000
    30  C    0.000000   0.000000   0.000000   0.000000   0.000000   0.000000
    31  H    0.000000   0.000000   0.000000   0.000000   0.000000   0.000000
    32  H    0.000000   0.000000   0.000000   0.000000   0.000000   0.000000
              19         20         21         22         23         24
     1  C    0.000000   0.000000   0.000000   0.000000   0.000000   0.000000
     2  C    0.000000   0.000000   0.000000   0.000000   0.000000   0.000000
     3  C    0.000000   0.000000   0.000000   0.000000   0.000000   0.000000
     4  C    0.000000   0.000000   0.000000   0.000000   0.000000   0.000000
     5  C    0.000000   0.000000   0.000000   0.000000   0.000000   0.000000
     6  C    0.000000   0.000000   0.000000   0.000000   0.000000   0.000000
     7  H    0.000000   0.000000   0.000000   0.000000   0.000000   0.000000
     8  H    0.000000   0.000000   0.000000   0.000000   0.000000   0.000000
     9  H    0.000000   0.000000   0.000000   0.000000   0.000000   0.000000
    10  H    0.000000   0.000000   0.000000   0.000000   0.000000   0.000000
    11  C    0.000000   0.000000   0.000000   0.000000   0.000000   0.000000
    12  C    0.000000   0.000000   0.000000   0.000000   0.000000   0.000000
    13  C    0.000000   0.000000   0.000000   0.000000   0.000000   0.000000
    14  H    0.000000   0.000000   0.000000   0.000000   0.000000   0.000000
    15  C    0.000000   0.000000   0.000000   0.000000   0.000000   0.000000
    16  H    0.000000   0.000000   0.000000   0.000000   0.000000   0.000000
    17  O    0.000000   0.000000   0.000000   0.000000   0.000000   0.000000
    18  Cl   0.000000   0.000000   0.000000   0.000000   0.000000   0.000000
    19  C    3.549562   0.000000   0.000000   0.000000   0.000000   0.000000
    20  C    0.000000   4.246466   0.000000   0.000000   0.000000   0.000000
    21  H    0.000000   0.000000   0.833553   0.000000   0.000000   0.000000
    22  C    0.000000   0.000000   0.000000   4.584115   0.000000   0.000000
    23  H    0.000000   0.000000   0.000000   0.000000   0.815106   0.000000
    24  H    0.000000   0.000000   0.000000   0.000000   0.000000   0.820460
    25  H    0.000000   0.000000   0.000000   0.000000   0.000000   0.000000
    26  C    0.000000   0.000000   0.000000   0.000000   0.000000   0.000000
    27  H    0.000000   0.000000   0.000000   0.000000   0.000000   0.000000
    28  H    0.000000   0.000000   0.000000   0.000000   0.000000   0.000000
    29  H    0.000000   0.000000   0.000000   0.000000   0.000000   0.000000
    30  C    0.000000   0.000000   0.000000   0.000000   0.000000   0.000000
    31  H    0.000000   0.000000   0.000000   0.000000   0.000000   0.000000
    32  H    0.000000   0.000000   0.000000   0.000000   0.000000   0.000000
              25         26         27         28         29         30
     1  C    0.000000   0.000000   0.000000   0.000000   0.000000   0.000000
     2  C    0.000000   0.000000   0.000000   0.000000   0.000000   0.000000
     3  C    0.000000   0.000000   0.000000   0.000000   0.000000   0.000000
     4  C    0.000000   0.000000   0.000000   0.000000   0.000000   0.000000
     5  C    0.000000   0.000000   0.000000   0.000000   0.000000   0.000000
     6  C    0.000000   0.000000   0.000000   0.000000   0.000000   0.000000
     7  H    0.000000   0.000000   0.000000   0.000000   0.000000   0.000000
     8  H    0.000000   0.000000   0.000000   0.000000   0.000000   0.000000
     9  H    0.000000   0.000000   0.000000   0.000000   0.000000   0.000000
    10  H    0.000000   0.000000   0.000000   0.000000   0.000000   0.000000
    11  C    0.000000   0.000000   0.000000   0.000000   0.000000   0.000000
    12  C    0.000000   0.000000   0.000000   0.000000   0.000000   0.000000
    13  C    0.000000   0.000000   0.000000   0.000000   0.000000   0.000000
    14  H    0.000000   0.000000   0.000000   0.000000   0.000000   0.000000
    15  C    0.000000   0.000000   0.000000   0.000000   0.000000   0.000000
    16  H    0.000000   0.000000   0.000000   0.000000   0.000000   0.000000
    17  O    0.000000   0.000000   0.000000   0.000000   0.000000   0.000000
    18  Cl   0.000000   0.000000   0.000000   0.000000   0.000000   0.000000
    19  C    0.000000   0.000000   0.000000   0.000000   0.000000   0.000000
    20  C    0.000000   0.000000   0.000000   0.000000   0.000000   0.000000
    21  H    0.000000   0.000000   0.000000   0.000000   0.000000   0.000000
    22  C    0.000000   0.000000   0.000000   0.000000   0.000000   0.000000
    23  H    0.000000   0.000000   0.000000   0.000000   0.000000   0.000000
    24  H    0.000000   0.000000   0.000000   0.000000   0.000000   0.000000
    25  H    0.816087   0.000000   0.000000   0.000000   0.000000   0.000000
    26  C    0.000000   4.546472   0.000000   0.000000   0.000000   0.000000
    27  H    0.000000   0.000000   0.819623   0.000000   0.000000   0.000000
    28  H    0.000000   0.000000   0.000000   0.818970   0.000000   0.000000
    29  H    0.000000   0.000000   0.000000   0.000000   0.821851   0.000000
    30  C    0.000000   0.000000   0.000000   0.000000   0.000000   4.272775
    31  H    0.000000   0.000000   0.000000   0.000000   0.000000   0.000000
    32  H    0.000000   0.000000   0.000000   0.000000   0.000000   0.000000
              31         32
     1  C    0.000000   0.000000
     2  C    0.000000   0.000000
     3  C    0.000000   0.000000
     4  C    0.000000   0.000000
     5  C    0.000000   0.000000
     6  C    0.000000   0.000000
     7  H    0.000000   0.000000
     8  H    0.000000   0.000000
     9  H    0.000000   0.000000
    10  H    0.000000   0.000000
    11  C    0.000000   0.000000
    12  C    0.000000   0.000000
    13  C    0.000000   0.000000
    14  H    0.000000   0.000000
    15  C    0.000000   0.000000
    16  H    0.000000   0.000000
    17  O    0.000000   0.000000
    18  Cl   0.000000   0.000000
    19  C    0.000000   0.000000
    20  C    0.000000   0.000000
    21  H    0.000000   0.000000
    22  C    0.000000   0.000000
    23  H    0.000000   0.000000
    24  H    0.000000   0.000000
    25  H    0.000000   0.000000
    26  C    0.000000   0.000000
    27  H    0.000000   0.000000
    28  H    0.000000   0.000000
    29  H    0.000000   0.000000
    30  C    0.000000   0.000000
    31  H    0.845227   0.000000
    32  H    0.000000   0.842984
 Mulliken charges:
               1
     1  C   -0.084448
     2  C   -0.216169
     3  C    0.091909
     4  C   -0.146830
     5  C   -0.084064
     6  C   -0.194543
     7  H    0.156054
     8  H    0.171413
     9  H    0.166171
    10  H    0.164382
    11  C    0.364215
    12  C   -0.118911
    13  C   -0.396359
    14  H    0.192922
    15  C   -0.033234
    16  H    0.164633
    17  O   -0.460091
    18  Cl  -0.103799
    19  C    0.450438
    20  C   -0.246466
    21  H    0.166447
    22  C   -0.584115
    23  H    0.184894
    24  H    0.179540
    25  H    0.183913
    26  C   -0.546472
    27  H    0.180377
    28  H    0.181030
    29  H    0.178149
    30  C   -0.272775
    31  H    0.154773
    32  H    0.157016
 Sum of Mulliken charges =   0.00000
 Mulliken charges with hydrogens summed into heavy atoms:
               1
     1  C    0.071606
     2  C   -0.044756
     3  C    0.091909
     4  C   -0.146830
     5  C    0.082107
     6  C   -0.030161
    11  C    0.364215
    12  C   -0.118911
    13  C   -0.203437
    15  C    0.131399
    17  O   -0.460091
    18  Cl  -0.103799
    19  C    0.450438
    20  C   -0.080019
    22  C   -0.035769
    26  C   -0.006916
    30  C    0.039014
 Charge=              0.0000 electrons
 Dipole moment (field-independent basis, Debye):
    X=              4.6083    Y=              0.6426    Z=             -0.2570  Tot=              4.6600
 N-N= 6.449900559107D+02 E-N=-1.177109463039D+03  KE=-5.656367769710D+01
 PrsmSu:  requested number of processors reduced to:   1 ShMem   1 Linda.
 D1PCM: C-PCM CHGder 1st derivatives, ID1Alg=3 FixD1E=F DoIter=F DoCFld=F I1PDM=0.
 Calling FoFJK, ICntrl=      2127 FMM=F ISym2X=0 I1Cent= 0 IOpClX= 0 NMat=1 NMatS=1 NMatT=0.
 ***** Axes restored to original set *****
 -------------------------------------------------------------------
 Center     Atomic                   Forces (Hartrees/Bohr)
 Number     Number              X              Y              Z
 -------------------------------------------------------------------
      1        6          -0.000228001   -0.000170374    0.000013120
      2        6          -0.000200735   -0.000405228    0.000037662
      3        6           0.000218282   -0.000033081   -0.000013567
      4        6           0.000251984   -0.000139837    0.000024516
      5        6           0.000206656   -0.000125561    0.000002478
      6        6          -0.000045238   -0.000487030    0.000032620
      7        1           0.000387654    0.000341159   -0.000037202
      8        1           0.000068639    0.000245282   -0.000028493
      9        1          -0.000098085    0.000234862   -0.000029048
     10        1          -0.000036735    0.000525160   -0.000027598
     11        6          -0.001539004    0.001234129   -0.000043674
     12        6          -0.000168617    0.000796173    0.000003624
     13        6           0.001285429   -0.000276072   -0.000178530
     14        1          -0.000491887   -0.000388751    0.000151753
     15        6          -0.000829994    0.000214051    0.000051655
     16        1          -0.000169678   -0.000426043    0.000043710
     17        8           0.002751131   -0.000249112   -0.000089621
     18       17           0.000378388   -0.000246616   -0.000048570
     19        6          -0.002775634   -0.001105203    0.000584308
     20        6           0.000532047    0.000390666   -0.000184890
     21        1          -0.000296433   -0.000232965    0.000187262
     22        6           0.001437395    0.000784660   -0.000597022
     23        1          -0.000343840   -0.000144696    0.000056069
     24        1          -0.000327041   -0.000282363    0.000089974
     25        1          -0.000373654   -0.000148413    0.000190929
     26        6           0.001483096    0.000036174   -0.000273401
     27        1          -0.000382328    0.000097424   -0.000021800
     28        1          -0.000311869   -0.000058120    0.000104981
     29        1          -0.000401175    0.000034637    0.000117650
     30        6           0.000355036    0.000180361    0.000203280
     31        1          -0.000094762   -0.000029886   -0.000146963
     32        1          -0.000241028   -0.000165389   -0.000175211
 -------------------------------------------------------------------
 Cartesian Forces:  Max     0.002775634 RMS     0.000590527

 GradGradGradGradGradGradGradGradGradGradGradGradGradGradGradGradGradGrad
 Berny optimization.
 FormGI is forming the generalized inverse of G from B-inverse, IUseBI=4.
 Internal  Forces:  Max     0.001856346 RMS     0.000258441
 Search for a local minimum.
 Step number   1 out of a maximum of  175
 All quantities printed in internal units (Hartrees-Bohrs-Radians)
 Mixed Optimization -- En-DIIS/RFO-DIIS
 Second derivative matrix not updated -- first step.
 ITU=  0
     Eigenvalues ---    0.00378   0.00461   0.00555   0.00621   0.01645
     Eigenvalues ---    0.01664   0.01697   0.01745   0.01893   0.01945
     Eigenvalues ---    0.01974   0.01984   0.02031   0.02085   0.02111
     Eigenvalues ---    0.02117   0.02137   0.02179   0.02185   0.02249
     Eigenvalues ---    0.02267   0.03015   0.03015   0.04261   0.05357
     Eigenvalues ---    0.05419   0.05514   0.05516   0.06340   0.07912
     Eigenvalues ---    0.15995   0.16000   0.16000   0.16000   0.16000
     Eigenvalues ---    0.16000   0.16000   0.16000   0.16000   0.16000
     Eigenvalues ---    0.16000   0.16000   0.16000   0.16000   0.16000
     Eigenvalues ---    0.16616   0.17380   0.22000   0.22001   0.22498
     Eigenvalues ---    0.22559   0.24487   0.24504   0.25000   0.25000
     Eigenvalues ---    0.25000   0.25000   0.29488   0.30078   0.31252
     Eigenvalues ---    0.32797   0.33805   0.33827   0.33895   0.33902
     Eigenvalues ---    0.34025   0.34029   0.34134   0.34492   0.34584
     Eigenvalues ---    0.34597   0.34715   0.34790   0.34923   0.35086
     Eigenvalues ---    0.35485   0.35786   0.36829   0.37718   0.39314
     Eigenvalues ---    0.39740   0.41220   0.41775   0.42615   0.47608
     Eigenvalues ---    0.48176   0.49410   0.49487   0.52400   0.59512
 RFO step:  Lambda=-4.92153473D-05 EMin= 3.78404665D-03
 Linear search not attempted -- first point.
 Iteration  1 RMS(Cart)=  0.01145122 RMS(Int)=  0.00002198
 Iteration  2 RMS(Cart)=  0.00004875 RMS(Int)=  0.00000263
 Iteration  3 RMS(Cart)=  0.00000000 RMS(Int)=  0.00000263
 Variable       Old X    -DE/DX   Delta X   Delta X   Delta X     New X
                                 (Linear)    (Quad)   (Total)
    R1        2.59908   0.00013   0.00000   0.00025   0.00025   2.59933
    R2        2.68742  -0.00002   0.00000  -0.00005  -0.00005   2.68736
    R3        2.06140   0.00052   0.00000   0.00149   0.00149   2.06289
    R4        2.69780   0.00002   0.00000   0.00005   0.00005   2.69785
    R5        2.06017  -0.00003   0.00000  -0.00009  -0.00009   2.06008
    R6        2.68172   0.00011   0.00000   0.00029   0.00029   2.68202
    R7        2.70733  -0.00008   0.00000  -0.00020  -0.00020   2.70714
    R8        2.69421   0.00018   0.00000   0.00044   0.00044   2.69465
    R9        2.73719   0.00036   0.00000   0.00097   0.00097   2.73816
   R10        2.59675  -0.00003   0.00000  -0.00007  -0.00007   2.59668
   R11        2.06507   0.00018   0.00000   0.00052   0.00052   2.06559
   R12        2.05801   0.00053   0.00000   0.00152   0.00152   2.05952
   R13        2.60770   0.00040   0.00000   0.00081   0.00081   2.60851
   R14        2.57518  -0.00135   0.00000  -0.00257  -0.00257   2.57261
   R15        2.59479   0.00055   0.00000   0.00108   0.00108   2.59586
   R16        3.26409   0.00045   0.00000   0.00136   0.00136   3.26546
   R17        2.05535   0.00063   0.00000   0.00181   0.00181   2.05716
   R18        2.67847  -0.00073   0.00000  -0.00172  -0.00172   2.67675
   R19        2.06355   0.00041   0.00000   0.00117   0.00117   2.06472
   R20        2.80807   0.00186   0.00000   0.00548   0.00548   2.81355
   R21        2.85535  -0.00002   0.00000  -0.00007  -0.00007   2.85528
   R22        2.87808  -0.00035   0.00000  -0.00117  -0.00117   2.87691
   R23        2.88995  -0.00015   0.00000  -0.00050  -0.00050   2.88946
   R24        2.06335   0.00040   0.00000   0.00115   0.00115   2.06450
   R25        2.51329   0.00012   0.00000   0.00020   0.00020   2.51349
   R26        2.07288   0.00037   0.00000   0.00108   0.00108   2.07396
   R27        2.07496   0.00009   0.00000   0.00027   0.00027   2.07522
   R28        2.07623  -0.00010   0.00000  -0.00028  -0.00028   2.07595
   R29        2.07660  -0.00001   0.00000  -0.00003  -0.00003   2.07657
   R30        2.07105   0.00031   0.00000   0.00091   0.00091   2.07196
   R31        2.07281   0.00007   0.00000   0.00020   0.00020   2.07302
   R32        2.04417   0.00015   0.00000   0.00042   0.00042   2.04460
   R33        2.04895  -0.00024   0.00000  -0.00067  -0.00067   2.04828
    A1        2.10740  -0.00005   0.00000  -0.00024  -0.00024   2.10716
    A2        2.10320   0.00006   0.00000   0.00033   0.00033   2.10353
    A3        2.07259  -0.00001   0.00000  -0.00010  -0.00010   2.07250
    A4        2.10127   0.00006   0.00000   0.00030   0.00030   2.10157
    A5        2.09589  -0.00030   0.00000  -0.00181  -0.00181   2.09407
    A6        2.08603   0.00024   0.00000   0.00152   0.00152   2.08754
    A7        2.07218  -0.00001   0.00000  -0.00001  -0.00001   2.07217
    A8        2.15422   0.00012   0.00000   0.00042   0.00042   2.15464
    A9        2.05678  -0.00011   0.00000  -0.00041  -0.00041   2.05637
   A10        2.09016  -0.00010   0.00000  -0.00041  -0.00041   2.08975
   A11        2.07057   0.00004   0.00000   0.00022   0.00022   2.07080
   A12        2.12245   0.00006   0.00000   0.00019   0.00019   2.12264
   A13        2.10046   0.00008   0.00000   0.00034   0.00034   2.10080
   A14        2.06167   0.00015   0.00000   0.00101   0.00101   2.06268
   A15        2.12106  -0.00023   0.00000  -0.00135  -0.00135   2.11971
   A16        2.09491   0.00001   0.00000   0.00002   0.00002   2.09493
   A17        2.07753  -0.00002   0.00000  -0.00011  -0.00011   2.07742
   A18        2.11075   0.00001   0.00000   0.00009   0.00009   2.11084
   A19        2.12261  -0.00016   0.00000  -0.00063  -0.00063   2.12198
   A20        1.94868   0.00034   0.00000   0.00135   0.00135   1.95003
   A21        2.21189  -0.00018   0.00000  -0.00071  -0.00072   2.21117
   A22        2.13720   0.00010   0.00000   0.00038   0.00038   2.13758
   A23        2.07455   0.00005   0.00000   0.00022   0.00022   2.07477
   A24        2.07143  -0.00015   0.00000  -0.00060  -0.00060   2.07083
   A25        2.12595  -0.00007   0.00000  -0.00029  -0.00029   2.12566
   A26        2.08301   0.00015   0.00000   0.00060   0.00060   2.08360
   A27        2.07422  -0.00008   0.00000  -0.00030  -0.00030   2.07392
   A28        2.09619  -0.00001   0.00000  -0.00016  -0.00016   2.09603
   A29        2.11516   0.00022   0.00000   0.00144   0.00144   2.11660
   A30        2.07183  -0.00021   0.00000  -0.00129  -0.00129   2.07055
   A31        2.14399   0.00025   0.00000   0.00100   0.00100   2.14498
   A32        1.93910  -0.00004   0.00000  -0.00074  -0.00074   1.93836
   A33        1.89804   0.00001   0.00000  -0.00016  -0.00016   1.89789
   A34        1.73366   0.00001   0.00000   0.00027   0.00027   1.73393
   A35        1.97360  -0.00003   0.00000  -0.00030  -0.00030   1.97330
   A36        1.93728   0.00003   0.00000   0.00037   0.00037   1.93765
   A37        1.96778   0.00004   0.00000   0.00057   0.00057   1.96836
   A38        1.99138  -0.00034   0.00000  -0.00180  -0.00180   1.98958
   A39        2.16455   0.00042   0.00000   0.00189   0.00189   2.16644
   A40        2.12681  -0.00008   0.00000  -0.00017  -0.00017   2.12664
   A41        1.94849  -0.00024   0.00000  -0.00300  -0.00300   1.94549
   A42        1.96698   0.00026   0.00000   0.00204   0.00203   1.96901
   A43        1.93981   0.00048   0.00000   0.00410   0.00409   1.94390
   A44        1.87077  -0.00022   0.00000  -0.00335  -0.00335   1.86742
   A45        1.86941  -0.00022   0.00000  -0.00212  -0.00212   1.86729
   A46        1.86305  -0.00011   0.00000   0.00212   0.00211   1.86515
   A47        1.93757   0.00049   0.00000   0.00409   0.00408   1.94165
   A48        1.94259  -0.00020   0.00000  -0.00253  -0.00253   1.94006
   A49        1.95029   0.00030   0.00000   0.00211   0.00210   1.95239
   A50        1.87893  -0.00020   0.00000  -0.00171  -0.00171   1.87722
   A51        1.86620  -0.00017   0.00000   0.00134   0.00132   1.86752
   A52        1.88480  -0.00025   0.00000  -0.00346  -0.00346   1.88135
   A53        2.15208  -0.00012   0.00000  -0.00074  -0.00075   2.15134
   A54        2.15291   0.00027   0.00000   0.00171   0.00170   2.15461
   A55        1.97814  -0.00015   0.00000  -0.00090  -0.00091   1.97723
    D1       -0.00035   0.00000   0.00000  -0.00019  -0.00019  -0.00054
    D2        3.14118  -0.00001   0.00000  -0.00031  -0.00031   3.14087
    D3        3.14129   0.00000   0.00000   0.00001   0.00001   3.14130
    D4       -0.00036   0.00000   0.00000  -0.00011  -0.00011  -0.00048
    D5        0.00057   0.00000   0.00000   0.00006   0.00006   0.00063
    D6       -3.14113   0.00001   0.00000   0.00042   0.00042  -3.14071
    D7       -3.14107   0.00000   0.00000  -0.00014  -0.00014  -3.14121
    D8        0.00042   0.00000   0.00000   0.00022   0.00022   0.00064
    D9       -0.00053   0.00000   0.00000   0.00001   0.00001  -0.00052
   D10        3.14041   0.00000   0.00000   0.00005   0.00005   3.14046
   D11        3.14112   0.00000   0.00000   0.00013   0.00013   3.14126
   D12       -0.00112   0.00000   0.00000   0.00018   0.00018  -0.00094
   D13        0.00120   0.00000   0.00000   0.00029   0.00029   0.00149
   D14       -3.14128  -0.00001   0.00000  -0.00030  -0.00030  -3.14158
   D15       -3.13978   0.00000   0.00000   0.00025   0.00025  -3.13953
   D16        0.00093  -0.00001   0.00000  -0.00035  -0.00035   0.00059
   D17       -3.14118  -0.00001   0.00000  -0.00050  -0.00050   3.14151
   D18       -0.00142  -0.00002   0.00000  -0.00092  -0.00092  -0.00234
   D19       -0.00024  -0.00001   0.00000  -0.00045  -0.00045  -0.00069
   D20        3.13952  -0.00002   0.00000  -0.00087  -0.00087   3.13865
   D21       -0.00100  -0.00001   0.00000  -0.00042  -0.00042  -0.00142
   D22        3.14071  -0.00002   0.00000  -0.00083  -0.00083   3.13988
   D23        3.14150   0.00000   0.00000   0.00019   0.00019  -3.14149
   D24        0.00002   0.00000   0.00000  -0.00022  -0.00022  -0.00019
   D25       -0.00166   0.00002   0.00000   0.00072   0.00072  -0.00094
   D26       -3.14024  -0.00001   0.00000  -0.00051  -0.00051  -3.14075
   D27        3.13904   0.00000   0.00000   0.00011   0.00011   3.13915
   D28        0.00045  -0.00002   0.00000  -0.00111  -0.00111  -0.00066
   D29        0.00012   0.00001   0.00000   0.00024   0.00024   0.00036
   D30       -3.14137   0.00000   0.00000  -0.00012  -0.00012  -3.14149
   D31        3.14159   0.00001   0.00000   0.00067   0.00067  -3.14093
   D32        0.00010   0.00001   0.00000   0.00030   0.00030   0.00040
   D33       -3.13524  -0.00007   0.00000  -0.00317  -0.00317  -3.13841
   D34        0.00161  -0.00001   0.00000  -0.00029  -0.00029   0.00132
   D35        0.00286  -0.00004   0.00000  -0.00174  -0.00174   0.00111
   D36        3.13971   0.00002   0.00000   0.00113   0.00113   3.14084
   D37       -3.13988  -0.00009   0.00000  -0.00424  -0.00424   3.13906
   D38        0.00491  -0.00012   0.00000  -0.00554  -0.00554  -0.00064
   D39        0.00018   0.00002   0.00000   0.00090   0.00090   0.00108
   D40        3.14084   0.00003   0.00000   0.00103   0.00103  -3.14131
   D41       -3.13959   0.00003   0.00000   0.00131   0.00131  -3.13827
   D42        0.00108   0.00003   0.00000   0.00145   0.00145   0.00253
   D43       -0.00086  -0.00001   0.00000  -0.00051  -0.00051  -0.00137
   D44       -3.14155  -0.00002   0.00000  -0.00065  -0.00065   3.14099
   D45        3.13613   0.00005   0.00000   0.00228   0.00228   3.13841
   D46       -0.00455   0.00004   0.00000   0.00215   0.00215  -0.00241
   D47       -1.06340  -0.00002   0.00000  -0.00755  -0.00755  -1.07094
   D48        1.11966  -0.00008   0.00000  -0.00855  -0.00855   1.11112
   D49       -3.10393  -0.00004   0.00000  -0.00783  -0.00783  -3.11176
   D50        2.69197  -0.00003   0.00000  -0.00394  -0.00394   2.68803
   D51       -0.48098  -0.00007   0.00000  -0.00673  -0.00673  -0.48771
   D52        0.55198   0.00002   0.00000  -0.00296  -0.00296   0.54902
   D53       -2.62097  -0.00002   0.00000  -0.00575  -0.00575  -2.62672
   D54       -1.67957  -0.00002   0.00000  -0.00381  -0.00381  -1.68338
   D55        1.43066  -0.00007   0.00000  -0.00660  -0.00660   1.42406
   D56        2.78826   0.00009   0.00000   0.00258   0.00258   2.79085
   D57       -1.38830  -0.00018   0.00000  -0.00248  -0.00249  -1.39079
   D58        0.70218   0.00020   0.00000   0.00452   0.00452   0.70670
   D59       -1.33224   0.00002   0.00000   0.00131   0.00131  -1.33093
   D60        0.77438  -0.00025   0.00000  -0.00376  -0.00376   0.77062
   D61        2.86486   0.00013   0.00000   0.00324   0.00325   2.86811
   D62        0.88330   0.00006   0.00000   0.00206   0.00205   0.88535
   D63        2.98992  -0.00021   0.00000  -0.00301  -0.00302   2.98691
   D64       -1.20278   0.00017   0.00000   0.00399   0.00399  -1.19879
   D65        0.91576   0.00011   0.00000   0.00275   0.00275   0.91852
   D66        3.00844   0.00005   0.00000   0.00164   0.00164   3.01008
   D67       -1.16593  -0.00021   0.00000  -0.00309  -0.00310  -1.16903
   D68       -1.12615   0.00014   0.00000   0.00330   0.00331  -1.12284
   D69        0.96653   0.00008   0.00000   0.00219   0.00219   0.96872
   D70        3.07534  -0.00018   0.00000  -0.00254  -0.00254   3.07280
   D71        2.92233   0.00014   0.00000   0.00293   0.00294   2.92526
   D72       -1.26818   0.00007   0.00000   0.00182   0.00182  -1.26636
   D73        0.84063  -0.00018   0.00000  -0.00291  -0.00291   0.83771
   D74       -3.12166   0.00010   0.00000   0.00411   0.00411  -3.11755
   D75        0.03233  -0.00009   0.00000  -0.00230  -0.00229   0.03004
   D76       -0.01377   0.00005   0.00000   0.00109   0.00109  -0.01269
   D77        3.14022  -0.00014   0.00000  -0.00532  -0.00532   3.13490
         Item               Value     Threshold  Converged?
 Maximum Force            0.001856     0.000450     NO 
 RMS     Force            0.000258     0.000300     YES
 Maximum Displacement     0.043015     0.001800     NO 
 RMS     Displacement     0.011473     0.001200     NO 
 Predicted change in Energy=-2.465418D-05
 GradGradGradGradGradGradGradGradGradGradGradGradGradGradGradGradGradGrad

                          Input orientation:                          
 ---------------------------------------------------------------------
 Center     Atomic      Atomic             Coordinates (Angstroms)
 Number     Number       Type             X           Y           Z
 ---------------------------------------------------------------------
      1          6           0        2.819412    2.502259   -0.135158
      2          6           0        3.006306    1.140761   -0.076746
      3          6           0        1.886274    0.261216    0.023699
      4          6           0        0.581950    0.819375    0.062454
      5          6           0        0.415971    2.234212   -0.000883
      6          6           0        1.511154    3.058479   -0.097418
      7          1           0        3.674523    3.176489   -0.211706
      8          1           0        4.014619    0.727484   -0.107287
      9          1           0       -0.599850    2.636690    0.029283
     10          1           0        1.395169    4.141039   -0.146336
     11          6           0       -0.553585   -0.074874    0.164430
     12          6           0        2.005381   -1.164957    0.087407
     13          6           0       -0.392154   -1.444523    0.222827
     14          1           0       -1.242936   -2.119645    0.296532
     15          6           0        0.913370   -1.992702    0.183979
     16          1           0        1.027017   -3.078338    0.231562
     17          8           0       -1.731527    0.607138    0.189564
     18         17           0        3.580517   -1.873824    0.037852
     19          6           0       -3.054950   -0.067997    0.286851
     20          6           0       -3.290309   -0.974824   -0.898576
     21          1           0       -3.975151   -1.801639   -0.696366
     22          6           0       -3.135115   -0.797301    1.620785
     23          1           0       -4.175084   -1.005768    1.902732
     24          1           0       -2.605747   -1.759411    1.612576
     25          1           0       -2.696596   -0.199151    2.431168
     26          6           0       -3.964838    1.159414    0.227601
     27          1           0       -3.731462    1.786449   -0.644115
     28          1           0       -5.018960    0.867331    0.152224
     29          1           0       -3.855172    1.792547    1.116709
     30          6           0       -2.756806   -0.783667   -2.101884
     31          1           0       -2.952073   -1.430251   -2.947120
     32          1           0       -2.079796    0.030706   -2.332750
 ---------------------------------------------------------------------
                    Distance matrix (angstroms):
                    1          2          3          4          5
     1  C    0.000000
     2  C    1.375507   0.000000
     3  C    2.432747   1.427641   0.000000
     4  C    2.806668   2.449523   1.419262   0.000000
     5  C    2.422067   2.812690   2.460713   1.425947   0.000000
     6  C    1.422092   2.431779   2.824901   2.429519   1.374104
     7  H    1.091632   2.146840   3.428129   3.898097   3.398602
     8  H    2.139888   1.090149   2.182754   3.438091   3.902796
     9  H    3.425853   3.905560   3.438564   2.168037   1.093064
    10  H    2.171219   3.406211   3.914476   3.426130   2.148482
    11  C    4.255406   3.769450   2.466916   1.448973   2.509830
    12  C    3.763065   2.518955   1.432555   2.442202   3.753448
    13  C    5.100921   4.280533   2.853144   2.469784   3.773089
    14  H    6.168551   5.368951   3.941433   3.467397   4.668672
    15  C    4.892803   3.777161   2.460158   2.834146   4.260091
    16  H    5.872838   4.670485   3.454584   3.926684   5.352625
    17  O    4.940443   4.775221   3.638085   2.326667   2.700998
    18  Cl   4.445145   3.070924   2.725629   4.030549   5.185732
    19  C    6.425919   6.191293   4.959166   3.750310   4.174955
    20  C    7.071181   6.693165   5.401425   4.374599   4.984002
    21  H    8.062542   7.601472   6.255411   5.311563   6.004477
    22  C    7.030421   6.659935   5.374523   4.342651   4.942680
    23  H    8.085928   7.752308   6.471173   5.417301   5.932875
    24  H    7.116794   6.539109   5.175492   4.383427   5.261469
    25  H    6.656576   6.372448   5.197168   4.170980   4.639418
    26  C    6.925380   6.977809   5.923163   4.562476   4.516513
    27  H    6.609492   6.792373   5.859290   4.476606   4.220834
    28  H    8.012220   8.033186   6.932976   5.601835   5.606272
    29  H    6.827952   6.994929   6.041841   4.663322   4.436974
    30  C    6.764579   6.404534   5.212300   4.289684   4.856780
    31  H    7.528733   7.095874   5.924224   5.158263   5.783799
    32  H    5.911026   5.673641   4.619058   3.666592   4.064714
                    6          7          8          9         10
     6  C    0.000000
     7  H    2.169598   0.000000
     8  H    3.420668   2.474711   0.000000
     9  H    2.156454   4.315058   4.995702   0.000000
    10  H    1.089853   2.475901   4.302952   2.504796   0.000000
    11  C    3.761597   5.346938   4.646084   2.715324   4.654904
    12  C    4.256270   4.660866   2.766998   4.609027   5.346082
    13  C    4.899200   6.170935   4.924047   4.091075   5.876164
    14  H    5.878195   7.244912   5.992587   4.807047   6.808222
    15  C    5.094208   5.873762   4.135456   4.872887   6.161494
    16  H    6.164669   6.806515   4.850244   5.945515   7.238628
    17  O    4.075097   5.998997   5.755067   2.329263   4.730487
    18  Cl   5.350531   5.057350   2.641272   6.149819   6.402206
    19  C    5.547235   7.487393   7.125092   3.661856   6.140618
    20  C    6.321664   8.137203   7.542278   4.598100   6.977937
    21  H    7.353845   9.139704   8.401185   5.622988   8.028592
    22  C    6.277506   8.094455   7.511983   4.555518   6.930612
    23  H    7.269939   9.142126   8.609040   5.436875   7.855954
    24  H    6.563918   8.193468   7.278174   5.084894   7.342779
    25  H    5.891610   7.679251   7.234833   4.267012   6.497947
    26  C    5.805048   7.913371   7.998153   3.680329   6.144883
    27  H    5.422358   7.547703   7.836540   3.314117   5.663411
    28  H    6.892448   9.002295   9.038387   4.761752   7.207451
    29  H    5.645719   7.770218   8.035305   3.534430   5.888699
    30  C    6.082388   7.785731   7.219015   4.570905   6.731700
    31  H    6.941894   8.521522   7.826575   5.561649   7.601459
    32  H    5.201831   6.892530   6.525341   3.815835   5.809528
                   11         12         13         14         15
    11  C    0.000000
    12  C    2.782539   0.000000
    13  C    1.380365   2.417575   0.000000
    14  H    2.161884   3.392156   1.088601   0.000000
    15  C    2.414623   1.373672   1.416475   2.162970   0.000000
    16  H    3.394644   2.153834   2.164134   2.464955   1.092605
    17  O    1.361366   4.137056   2.450375   2.772274   3.708729
    18  Cl   4.510326   1.728005   4.000078   4.836635   2.673791
    19  C    2.504368   5.181703   2.998234   2.737288   4.411647
    20  C    3.070757   5.390050   3.142843   2.632609   4.458577
    21  H    3.928079   6.065181   3.716223   2.924375   4.970830
    22  C    3.050765   5.376906   3.145953   2.661312   4.459106
    23  H    4.123531   6.443515   4.162349   3.523932   5.460816
    24  H    3.024262   4.893058   2.632594   1.928469   3.805193
    25  H    3.121865   5.341777   3.426102   3.218400   4.615034
    26  C    3.628237   6.408266   4.420926   4.262127   5.808154
    27  H    3.770566   6.492865   4.726706   4.726007   6.045013
    28  H    4.563712   7.312712   5.172716   4.816763   6.585843
    29  H    3.910827   6.644725   4.823913   4.775113   6.159308
    30  C    3.239251   5.255169   3.381211   3.135129   4.489668
    31  H    4.155904   5.818512   4.074549   3.730642   5.006174
    32  H    2.928545   4.896472   3.399325   3.498209   4.403084
                   16         17         18         19         20
    16  H    0.000000
    17  O    4.603700   0.000000
[...]
 .00000929,0.00001221,0.00000302,0.00000979,-0.00000271,-0.00000155,0.0
 0000066,0.00000493,0.00000355,0.00012691,0.00000384,-0.00000484,-0.000
 01383,-0.00003327,-0.00000114,0.00002221,0.00002451,-0.00000666,-0.000
 00451,-0.00000320,0.00000085,-0.00000497,0.00000339,0.00000063,0.00014
 125,-0.00002532,0.00003465,0.00000748,-0.00000942,0.00000263,-0.000490
 37,0.00039442,-0.00010887,0.00000412,0.00004738,-0.00000126,0.00012226
 ,-0.00022138,0.00000775,0.00004726,0.00001355,-0.00001771,-0.00011993,
 -0.00000889,0.00001492,0.00000276,0.00000870,-0.00000004,0.00004649,-0
 .00052735,0.00037608,0.00003384,-0.00001099,-0.00000388,0.00308086,0.0
 1347200,-0.01125203,0.00003646,0.00001567,-0.00007383,-0.00000124,-0.0
 0003514,-0.00008333,-0.00121093,0.00176609,-0.00046278,-0.00004734,-0.
 00007480,0.00014011,0.00004613,0.00010216,-0.00030210,0.00002841,0.000
 01688,0.00009919,-0.04123505,-0.02318027,0.03352794,0.04587693,0.00002
 737,-0.00003103,0.00000058,-0.00003036,0.00003002,0.00000037,-0.000025
 24,-0.00002202,0.00000351,-0.00028060,0.00005172,0.00001421,-0.0000237
 1,0.00007764,-0.00000383,-0.00005944,-0.00004101,0.00000498,0.00001308
 ,0.00000885,-0.00000118,0.00002013,-0.00001000,-0.00000061,0.00006553,
 0.00000154,0.00001549,-0.00000157,0.00002360,-0.00000088,0.00079182,-0
 .00101210,-0.00002994,0.00001233,-0.00010441,0.00000392,-0.00025502,0.
 00038526,-0.00002545,-0.00003490,-0.00006067,0.00001459,0.00021590,0.0
 0000727,-0.00000903,-0.00000802,-0.00002653,0.00000087,-0.00080769,0.0
 0080902,0.00017871,-0.00007999,0.00003995,0.00000429,0.00620474,-0.025
 96135,0.02115910,-0.00011339,-0.00057922,-0.00018718,0.00003091,-0.000
 11551,0.00014526,0.00130385,-0.00152490,0.00009902,0.00001048,-0.00001
 337,-0.00006110,0.00000973,-0.00017606,0.00033470,0.00003152,0.0000075
 4,0.00000013,-0.02175113,-0.09114848,0.08119379,0.02131385,0.11682415,
 -0.00001948,0.00002415,-0.00000262,0.00002766,-0.00001238,-0.00000117,
 0.00001238,-0.00000120,0.00000104,0.00022125,-0.00001512,-0.00000897,0
 .00001182,-0.00006550,-0.00000168,0.00004848,0.00004206,0.00000101,-0.
 00001243,-0.00000827,0.00000052,-0.00001771,0.00000868,0.00000030,0.00
 003009,-0.00002767,-0.00001667,0.00000609,-0.00002234,-0.00000143,-0.0
 0087784,0.00070752,0.00008881,-0.00000510,0.00011366,-0.00000951,0.000
 30965,-0.00037724,0.00000419,0.00000149,0.00007074,0.00000061,-0.00021
 609,-0.00001001,0.00001247,0.00000883,0.00002580,-0.00000237,0.0004062
 2,-0.00024260,-0.00051306,0.00007751,-0.00003678,0.00000119,-0.0052662
 1,0.01268549,-0.00264822,0.00020547,-0.00040205,0.00022554,0.00005099,
 0.00000953,-0.00005208,0.00019409,-0.00040041,0.00052784,0.00009661,0.
 00005185,-0.00008333,-0.00003334,0.00008210,0.00002120,-0.00002703,-0.
 00003165,-0.00011355,0.03265994,0.08344994,-0.14981680,-0.03814085,-0.
 10503574,0.17748429,-0.00001533,0.00001484,0.00000019,0.00001211,-0.00
 000602,-0.00000062,-0.00000410,-0.00002940,0.00000280,0.00005815,0.000
 09546,-0.00000240,0.00001691,-0.00003802,0.00000038,0.00003133,0.00003
 015,-0.00000348,-0.00000645,-0.00000421,0.00000059,-0.00001213,0.00000
 453,0.00000045,0.00000685,-0.00002122,0.00000114,0.00000415,-0.0000148
 5,0.00000053,-0.00118272,0.00025601,-0.00000548,0.00002587,0.00008723,
 -0.00000431,0.00026778,-0.00032975,0.00000903,-0.00003212,0.00005930,0
 .00000846,-0.00019139,0.00001136,0.00001314,0.00000470,0.00001727,-0.0
 0000108,0.00029643,0.00136419,-0.00001272,0.00004751,-0.00001914,-0.00
 000359,-0.03116487,0.00990308,-0.00250110,-0.00006719,0.00044483,0.000
 48585,-0.00005009,0.00025716,-0.00001665,0.00040888,-0.00056993,0.0003
 8645,0.00011028,0.00036989,-0.00034160,-0.00003500,0.00009869,0.000073
 20,-0.00010605,-0.00002822,-0.00017719,-0.20214057,-0.04751990,-0.0133
 1724,-0.01030139,-0.00846222,0.00537311,0.25090708,-0.00000714,0.00001
 613,-0.00000011,0.00003192,-0.00001264,-0.00000092,0.00003171,0.000044
 53,-0.00000595,0.00032037,-0.00015826,-0.00001354,-0.00000052,-0.00005
 814,0.00000222,0.00003007,0.00002513,-0.00000272,-0.00001051,-0.000007
 09,0.00000087,-0.00001162,0.00000908,-0.00000006,-0.00000518,-0.000006
 37,0.00000172,0.00000358,-0.00001398,0.00000060,0.00036083,0.00105740,
 -0.00002063,-0.00003650,0.00006698,-0.00000119,0.00009379,-0.00013211,
 0.00000061,0.00001961,0.00004593,-0.00000796,-0.00009878,-0.00001505,0
 .00000365,0.00000556,0.00001985,-0.00000126,0.00210463,-0.00277338,0.0
 0005502,0.00006095,-0.00002920,-0.00000156,0.02214041,0.00201773,0.001
 55253,0.00024036,-0.00071223,-0.00035909,0.00013425,-0.00037505,-0.000
 13954,-0.00034006,-0.00039556,0.00012940,0.00016506,-0.00047169,0.0005
 0521,0.00000025,-0.00001571,-0.00001591,0.00008454,0.00002094,-0.00003
 332,-0.04980121,-0.04553486,-0.00388984,-0.01380392,-0.00387063,0.0037
 4935,0.05138238,0.05525075,-0.00000179,0.00000295,0.00000006,0.0000060
 3,-0.00000050,-0.00000068,0.00000283,0.00000012,-0.00000358,0.00004566
 ,-0.00001257,-0.00001727,0.00000436,-0.00001031,-0.00000544,0.00000647
 ,0.00000698,-0.00000082,-0.00000233,-0.00000154,0.00000047,-0.00000289
 ,0.00000159,0.,0.00000342,-0.00000450,0.00001322,0.00000129,-0.0000038
 4,0.00000143,-0.00008787,0.00016279,0.00018347,-0.00000207,0.00002072,
 -0.00000510,0.00004964,-0.00005056,-0.00001454,-0.00000662,0.00000958,
 0.00000904,-0.00003492,-0.00000034,-0.00000514,0.00000133,0.00000459,0
 .00000057,0.00016589,0.00008586,-0.00030055,0.00001388,-0.00000645,0.0
 0000338,-0.00309640,0.00081072,0.00384784,0.00024872,-0.00044720,-0.00
 026069,0.00003480,-0.00013091,-0.00003338,0.00015336,0.00000431,-0.000
 16282,-0.00010278,0.00048401,-0.00039646,-0.00001273,0.00001375,-0.000
 00639,-0.00005296,0.00007417,-0.00008714,-0.01288432,-0.00395425,-0.03
 178954,0.01656580,0.00844946,-0.00012763,0.01644629,0.00417458,0.03257
 256,-0.00000986,0.00001255,-0.00000258,0.00001170,-0.00000419,0.000000
 29,0.00000209,0.00000848,-0.00000068,0.00013314,-0.00001043,0.00000214
 ,-0.00000281,-0.00003495,0.00000213,0.00002345,0.00002370,0.00000286,-
 0.00000541,-0.00000376,-0.00000026,-0.00000619,0.00000388,-0.00000038,
 0.00010187,-0.00002677,-0.00003215,0.00000638,-0.00001063,-0.00000271,
 -0.00046368,0.00039092,0.00002308,-0.00000183,0.00004842,-0.00000309,0
 .00013397,-0.00021124,0.00000197,0.00003384,0.00001579,0.00000170,-0.0
 0011334,-0.00001164,0.00000433,0.00000337,0.00001000,-0.00000176,0.000
 17404,-0.00043129,-0.00028552,0.00003699,-0.00001296,0.00000111,0.0001
 8185,0.01538219,0.01178563,-0.00098377,0.00152900,-0.00008108,0.000072
 92,-0.00001381,0.00009962,0.00010142,-0.00005158,-0.00010887,0.0000574
 9,-0.00002599,0.00006947,-0.00000576,-0.00001671,0.00008524,-0.0000946
 3,0.00014522,-0.00022349,-0.03434289,-0.01106849,-0.01615048,0.0039322
 3,0.00156921,0.00482520,-0.00678470,-0.01317242,-0.01745394,0.03773911
 ,0.00002165,-0.00002529,-0.00000089,-0.00002745,0.00002391,0.00000077,
 -0.00002097,-0.00001878,0.00000119,-0.00024329,0.00004966,0.00000444,-
 0.00001771,0.00006507,-0.00000066,-0.00004942,-0.00003479,0.00000602,0
 .00001134,0.00000779,-0.00000125,0.00001717,-0.00000866,-0.00000041,0.
 00005034,0.00000933,-0.00001557,-0.00000174,0.00002024,-0.00000166,0.0
 0074781,-0.00091291,0.00004802,0.00001071,-0.00009118,0.00000238,-0.00
 022385,0.00031755,0.00001990,-0.00000511,-0.00004944,-0.00001596,0.000
 18193,0.00000172,-0.00001356,-0.00000642,-0.00002313,0.00000189,-0.001
 33756,0.00067567,-0.00000756,-0.00006915,0.00003439,0.00000253,0.00993
 880,-0.02638496,-0.02008255,0.00140043,-0.00161848,0.00004356,-0.00008
 930,-0.00001889,-0.00005750,-0.00032167,-0.00003761,-0.00000643,-0.000
 19320,-0.00070813,0.00031109,0.00006758,-0.00004638,-0.00012878,0.0004
 1874,-0.00035917,0.00056425,-0.00963460,-0.09380702,-0.08470524,0.0007
 2408,0.00662156,0.00578299,-0.00720679,-0.00399472,-0.00965351,0.00594
 181,0.12024086,0.00001407,-0.00001969,-0.00000157,-0.00002455,0.000007
 48,0.00000073,-0.00000718,0.00000792,0.00000332,-0.00018187,0.00000225
 ,0.00001061,-0.00000907,0.00005457,-0.00000528,-0.00003949,-0.00003596
 ,0.00000805,0.00001042,0.00000714,-0.00000138,0.00001500,-0.00000741,-
 0.00000037,-0.00003629,0.00002720,-0.00000767,-0.00000581,0.00001880,-
 0.00000213,0.00081123,-0.00055801,0.00001962,0.00000117,-0.00010338,-0
 .00000052,-0.00028719,0.00034132,-0.00000701,0.00000255,-0.00006771,0.
 00000142,0.00019443,0.00000841,-0.00000903,-0.00000819,-0.00002285,0.0
 0000067,-0.00055764,0.00027110,-0.00022207,-0.00006804,0.00003165,0.00
 000750,0.00493826,-0.00982794,0.00040696,-0.00039827,0.00038275,-0.000
 00071,-0.00002396,-0.00006449,0.00005807,-0.00016005,0.00067534,-0.000
 19170,-0.00002109,0.00011220,0.00001896,0.00002063,-0.00000846,-0.0000
 4845,-0.00012992,0.00015043,-0.00004955,-0.01473521,-0.08767592,-0.155
 37622,-0.00046194,-0.00600466,-0.02479748,-0.00627089,-0.00574399,-0.0
 0341835,0.01735816,0.10797660,0.18345353,-0.00000997,0.00001710,-0.000
 00012,-0.00002152,-0.00002822,0.00000284,0.00000676,0.00010845,-0.0000
 2013,0.00004593,-0.00002478,0.00004656,-0.00000979,0.00000373,0.000014
 49,0.00001816,-0.00001976,0.00000699,0.00000565,0.00000319,-0.00000144
 ,0.00001072,-0.00000369,-0.00000293,-0.00000590,0.00000777,0.00000319,
 -0.00000205,0.00001094,-0.00000203,-0.00025614,-0.00029535,-0.00041258
 ,-0.00003374,-0.00015411,0.00002190,-0.00087741,0.00059972,-0.00070322
 ,-0.00020093,0.00005076,-0.00010249,0.00025091,-0.00002689,-0.00008001
 ,-0.00000351,-0.00002504,0.00000307,0.00007053,-0.00065253,-0.00150483
 ,-0.00005032,0.00001638,0.00003188,0.00469244,0.00264125,0.00429875,-0
 .15407235,-0.04153363,0.20612707,-0.00994304,-0.01261564,0.02348418,0.
 00026412,0.00010272,-0.00067855,0.00003960,-0.00000178,-0.00004680,-0.
 00001844,-0.00003422,-0.00003186,0.00000305,0.00003186,-0.00001987,0.0
 0005217,0.00005412,0.00051736,-0.00001932,0.00006025,-0.00003470,0.000
 01683,0.00003582,-0.00001834,-0.00000371,-0.00002138,0.00000416,0.3158
 3009,0.00003032,-0.00002938,-0.00000316,-0.00000536,0.00002949,-0.0000
 0106,0.00000484,-0.00002779,0.00000206,-0.00015550,-0.00007378,0.00000
 433,0.00001109,0.00007204,0.00000069,-0.00004359,-0.00003240,0.0000085
 2,0.00000409,0.00000256,-0.00000004,0.00000953,-0.00000517,0.00000054,
 -0.00001591,0.00002084,0.00000180,-0.00000455,0.00001369,-0.00000092,0
 .00075622,-0.00056535,-0.00031531,-0.00002714,-0.00004307,-0.00000938,
 0.00007757,0.00033221,0.00035905,0.00011411,-0.00010576,0.00008273,0.0
 0017392,0.00000309,-0.00002770,-0.00000311,-0.00000865,-0.00000142,-0.
 00120896,0.00004596,-0.00158433,-0.00003955,0.00001134,-0.00000280,0.0
 0491346,0.00396277,-0.01726876,-0.04009156,-0.07882136,0.07417068,-0.0
 1632604,-0.00517876,0.02278934,-0.00017955,-0.00095017,-0.00203886,-0.
 00013232,-0.00002821,0.00005077,0.00004210,-0.00018654,0.00010482,0.00
 009207,0.00028194,-0.00016721,0.00060320,-0.00147526,-0.00139174,0.000
 01863,-0.00009778,-0.00014801,-0.00015275,0.00000569,-0.00002181,0.000
 05282,0.00002542,0.00005913,0.15309154,0.33631931,0.00000163,-0.000002
 89,-0.00000035,-0.00006188,-0.00003620,0.00000564,0.00000880,0.0001322
 2,-0.00002246,-0.00018831,-0.00004734,-0.00000374,-0.00003173,0.000074
 38,0.00000765,-0.00002841,-0.00007375,0.00000478,0.00002321,0.00001479
 ,-0.00000159,0.00003319,-0.00001390,-0.00000231,-0.00002266,0.00003422
 ,0.00000102,-0.00001015,0.00004019,-0.00000132,0.00075724,-0.00097266,
 -0.00002966,-0.00005412,-0.00031937,0.00003223,-0.00135241,0.00096777,
 -0.00079620,-0.00031245,0.00005127,-0.00023287,0.00054044,-0.00005504,
 -0.00009029,-0.00000965,-0.00005227,0.00001192,-0.00092115,-0.00019151
 ,-0.00252775,-0.00015087,0.00006406,0.00000643,0.00842554,-0.01288256,
 -0.04322868,0.20952331,0.07913320,-0.51817242,0.01548029,0.01182739,-0
 .01458327,-0.00070041,-0.00139928,-0.00274840,-0.00027687,-0.00007005,
 0.00027989,0.00011689,-0.00028974,0.00027032,0.00012367,0.00037105,-0.
 00015869,0.00007865,-0.00096383,-0.00186128,0.00003694,0.00009909,-0.0
 0015032,-0.00032653,0.00008535,0.00004887,0.00011063,-0.00001998,0.000
 25029,-0.22489274,-0.01693049,0.77420878,-0.00000302,0.00000346,-0.000
 00070,0.00001022,0.,-0.00000111,0.00000138,-0.00001072,0.00000008,0.00
 004683,0.00001537,-0.00001170,0.00000833,-0.00001374,-0.00000234,0.000
 00992,0.00001267,-0.00000127,-0.00000386,-0.00000256,0.00000075,-0.000
 00589,0.00000265,0.00000047,-0.00000091,-0.00000648,0.00000169,0.00000
 154,-0.00000666,0.00000085,-0.00035844,0.00020536,0.00003526,0.0000005
 2,0.00004453,-0.00000122,0.00011784,-0.00010591,0.00006836,-0.00005386
 ,0.00004800,-0.00001046,-0.00007198,0.00000783,-0.00000128,0.00000450,
 0.00001144,0.00000139,0.00076535,0.00045534,0.00021608,0.00002727,-0.0
 0001091,-0.00000599,0.00449939,-0.00472559,0.00251784,0.00552899,0.005
 22738,0.01166332,-0.00222093,0.00207324,-0.00043518,-0.00007615,0.0004
 8428,0.00097165,0.00007330,-0.00000191,-0.00001199,-0.00003274,0.00010
 302,-0.00007356,-0.00004978,-0.00009865,0.00007197,-0.00004610,-0.0006
 1249,-0.00069857,-0.00002230,0.00001647,0.00000452,-0.00000973,0.00000
 413,-0.00001427,0.00009083,-0.00014489,0.00002301,-0.04458471,-0.01757
 604,-0.02854743,0.03559938,0.00000025,0.00000380,0.00000042,0.00002070
 ,0.00000617,-0.00000132,0.00000479,-0.00001995,0.00000247,0.00010338,-
 0.00001449,-0.00000842,0.00001189,-0.00002219,0.00000216,0.00001405,0.
 00001969,-0.00000185,-0.00000766,-0.00000517,0.00000069,-0.00000986,0.
 00000519,0.00000047,0.00000252,-0.00001196,-0.00000040,0.00000289,-0.0
 0001191,0.00000050,-0.00044123,0.00037238,-0.00001530,0.00000277,0.000
 08020,-0.00000563,0.00024857,-0.00017300,0.00000528,-0.00009658,0.0000
 4325,-0.00003161,-0.00011402,0.00000826,0.00001612,0.00000197,0.000016
 03,-0.00000131,0.00066069,-0.00038460,-0.00018287,0.00004651,-0.000018
 08,0.00000066,-0.00520562,0.00161430,-0.00209369,0.00080274,0.00472021
 ,-0.00378743,0.00221884,-0.00050305,0.00085266,0.00012810,-0.00005817,
 0.00022692,0.00007201,0.00002243,-0.00011460,-0.00003349,0.00003815,-0
 .00010029,-0.00000760,-0.00002581,-0.00008350,0.00007452,0.00117206,0.
 00095334,-0.00001367,-0.00013528,0.00008627,0.00020481,-0.00007859,-0.
 00001344,-0.00012021,0.00010028,-0.00011244,-0.01652650,-0.10666691,-0
 .08989643,0.02899000,0.11325591,0.00000046,0.00000157,0.00000033,0.000
 02940,0.00001575,-0.00000099,-0.00000029,-0.00005279,0.00000122,0.0001
 1654,0.00002456,-0.00001254,0.00002002,-0.00002870,-0.00000111,0.00001
 457,0.00003238,-0.00000282,-0.00001091,-0.00000716,0.00000065,-0.00001
 498,0.00000652,0.00000023,0.00000894,-0.00001641,0.00000195,0.00000459
 ,-0.00001806,0.00000103,-0.00075491,0.00045304,-0.00011137,0.00001669,
 0.00013665,-0.00001148,0.00036409,-0.00028969,0.00017482,-0.00010950,0
 .00008741,-0.00007020,-0.00020972,0.00001752,0.00001110,0.00000750,0.0
 0002539,-0.00000366,0.00121703,0.00031968,0.00056853,0.00006975,-0.000
 02940,0.00000115,0.00192670,-0.00181273,-0.00250538,0.00301547,-0.0173
 3596,-0.04013184,-0.00017943,0.00114981,-0.00056183,-0.00010832,0.0000
 3310,0.00035473,0.00007250,0.00000515,-0.00004839,-0.00002407,0.000058
 82,-0.00008938,-0.00002707,-0.00002970,-0.00005762,-0.00005923,0.00018
 346,0.00013242,-0.00001444,-0.00010039,0.00002660,0.00010931,-0.000029
 60,-0.00002860,-0.00000294,-0.00005572,-0.00004690,-0.02680325,-0.0868
 8382,-0.14799498,0.02220103,0.10802663,0.18764133,0.00000220,-0.000008
 79,0.00000255,-0.00001215,-0.00000210,-0.00000272,0.00000246,-0.000000
 23,0.00000899,-0.00008608,0.00001848,0.00000699,0.00000026,0.00003239,
 0.00000658,-0.00001985,-0.00001174,-0.00000550,0.00000670,0.00000461,0
 .00000112,0.00000742,-0.00000328,0.00000181,0.00000369,0.00001885,0.00
 001099,-0.00000215,0.00000940,0.00000357,0.00034735,-0.00031647,-0.000
 09779,0.00001046,-0.00004482,0.00001319,-0.00019983,0.00013121,-0.0000
 9631,0.00007391,-0.00003928,0.00001656,0.00005477,-0.00000646,0.000010
 05,-0.00000135,-0.00001060,0.00000641,-0.00103788,-0.00039173,-0.00013
 491,-0.00002607,0.00001991,-0.00001612,-0.00149688,0.00317909,0.000719
 96,-0.00915395,-0.01627980,0.01438552,0.00486673,-0.00449355,0.0027908
 5,0.00003027,-0.00021080,-0.00068280,-0.00009006,-0.00001050,0.0000377
 5,0.00003440,-0.00007815,0.00007527,0.00004239,0.00008370,-0.00000191,
 -0.00004746,-0.00010495,0.00009774,-0.00008584,0.00023707,0.00007928,-
 0.00011085,0.00003840,0.00002464,-0.00001796,0.00008284,0.00003350,-0.
 11119297,-0.08403469,0.02262790,0.00075619,-0.01103593,-0.00087473,0.1
 1734222,0.00000104,-0.00000606,0.00000512,-0.00002776,-0.00001008,0.00
 000369,-0.00001120,0.00003923,-0.00001475,-0.00008966,0.00000859,-0.00
 001018,-0.00001020,0.00002862,0.00001155,-0.00002340,-0.00002621,-0.00
 000536,0.00001246,0.00000818,-0.00000059,0.00001634,-0.00000658,-0.000
 00139,0.00002205,0.00002405,0.00002182,-0.00000242,0.00001803,0.000003
 52,0.00049710,-0.00019124,0.00014290,0.00001210,-0.00011760,0.00001338
 ,-0.00032770,0.00016568,-0.00009304,0.00014634,-0.00009018,0.00006752,
 0.00013071,-0.00000924,-0.00002300,-0.00001043,-0.00002787,0.00000246,
 -0.00057087,0.00012167,0.00056226,-0.00006683,0.00003678,0.00000197,0.
 00304279,0.00022679,0.00206717,-0.01194010,-0.00403766,0.01030810,-0.0
 0455177,0.00243485,-0.00097464,-0.00009185,-0.00009157,-0.00051934,-0.
 00009343,-0.00001886,0.00012407,0.00004511,-0.00007837,0.00012325,0.00
 002859,0.00005850,0.00005981,-0.00001318,-0.00086654,-0.00077714,0.000
 00858,0.00004258,-0.00005358,-0.00019688,0.00007510,0.00000554,0.00009
 349,-0.00005449,0.00011979,-0.08486891,-0.14683041,0.03132278,-0.01438
 914,-0.01334838,-0.00388797,0.11322687,0.16252215,-0.00002053,0.000018
 98,0.00000073,0.00003051,0.00000089,-0.00000059,-0.00000042,-0.0000644
 4,0.00000872,0.00015991,0.00010941,0.00000290,0.00002660,-0.00005638,0
 .00000487,0.00004395,0.00005615,-0.00000533,-0.00001414,-0.00000882,0.
 00000059,-0.00002346,0.00000906,0.00000100,0.00002283,-0.00000982,0.00
 000654,0.00000658,-0.00002771,0.00000102,-0.00158538,0.00060286,-0.000
 73288,0.00004481,0.00018526,-0.00001325,0.00035904,-0.00050596,0.00009
 706,0.00001408,0.00009490,-0.00007547,-0.00035941,0.00001521,0.0000429
 4,0.00000849,0.00003317,-0.00000693,0.00071024,-0.00035093,0.00050186,
 0.00009480,-0.00004311,-0.00000177,-0.00003145,0.00101103,-0.00184336,
 0.02378592,0.02300887,-0.01447957,0.00293308,-0.00093248,-0.00169755,-
 0.00003240,-0.00003153,0.00030829,0.00003873,0.00001114,-0.00001877,0.
 00000355,0.00003895,-0.00002286,-0.00001474,-0.00004397,-0.00002623,-0
 .00015812,0.00030029,0.00031477,0.00012187,-0.00026212,-0.00004839,0.0
 0007438,0.00000663,-0.00001589,-0.00002299,0.00000168,-0.00005404,0.02
 079246,0.02916138,-0.04252206,-0.00796245,-0.01372416,0.00276219,-0.03
 904647,-0.03860450,0.05751229\\0.00000278,-0.00000174,0.00000409,0.000
 00397,0.00001860,0.00000392,-0.00001037,-0.00000234,0.00000340,0.00001
 397,-0.00000753,0.00000256,-0.00000167,0.00001163,0.00000202,-0.000008
 56,0.00000952,0.00000271,-0.00000604,0.00000198,0.00000564,-0.00000270
 ,0.00000215,0.00000588,-0.00000195,-0.00000171,-0.00000011,-0.00000371
 ,-0.00000456,0.00000281,-0.00001764,0.00000786,0.00000304,0.00001609,0
 .00000452,0.00000241,0.00000815,-0.00001071,-0.00000231,0.00000568,0.0
 0000449,0.00000021,-0.00001631,0.00000085,0.00000340,0.00000586,0.0000
 0643,0.00000198,0.00003095,0.00000443,-0.00000558,-0.00000195,0.000007
 36,0.00000452,-0.00002803,-0.00002196,-0.00000648,-0.00000192,0.000001
 65,0.00001234,0.00000637,-0.00000386,-0.00000517,-0.00002072,-0.000009
 43,-0.00000554,0.00001123,0.00000085,-0.00000807,0.00000376,-0.0000015
 8,-0.00000252,0.00000382,0.00000342,0.00000367,-0.00001731,-0.00001409
 ,0.00000447,0.00000327,0.00000254,-0.00001005,0.00001009,-0.00000157,-
 0.00000617,-0.00000057,-0.00000174,-0.00000247,-0.00000008,-0.00000618
 ,-0.00001592,0.00000660,-0.00000160,0.00000068,0.00000695,0.00000231,0
 .00000064\\\@


 E PUR SI MUOVE    -- GALILEO GALILEI
 Job cpu time:       0 days  0 hours  0 minutes 42.3 seconds.
 File lengths (MBytes):  RWF=    159 Int=      0 D2E=      0 Chk=     12 Scr=      1
 Normal termination of Gaussian 09 at Thu Aug 20 13:53:08 2020.
