 Entering Gaussian System, Link 0=g09
 Input=TS_claisen_PM6_toluene_water.com
 Output=TS_claisen_PM6_toluene_water.log
 Initial command:
 /apps/applications/gaussian/G09.D01/2/default/g09/l1.exe "/local/706797.1.40core-192G.q/Gau-340754.inp" -scrdir="/local/706797.1.40core-192G.q/"
 Entering Link 1 = /apps/applications/gaussian/G09.D01/2/default/g09/l1.exe PID=    340755.
  
 Copyright (c) 1988,1990,1992,1993,1995,1998,2003,2009,2013,
            Gaussian, Inc.  All Rights Reserved.
  
 This is part of the Gaussian(R) 09 program.  It is based on
 the Gaussian(R) 03 system (copyright 2003, Gaussian, Inc.),
 the Gaussian(R) 98 system (copyright 1998, Gaussian, Inc.),
 the Gaussian(R) 94 system (copyright 1995, Gaussian, Inc.),
 the Gaussian 92(TM) system (copyright 1992, Gaussian, Inc.),
 the Gaussian 90(TM) system (copyright 1990, Gaussian, Inc.),
 the Gaussian 88(TM) system (copyright 1988, Gaussian, Inc.),
 the Gaussian 86(TM) system (copyright 1986, Carnegie Mellon
 University), and the Gaussian 82(TM) system (copyright 1983,
 Carnegie Mellon University). Gaussian is a federally registered
 trademark of Gaussian, Inc.
  
 This software contains proprietary and confidential information,
 including trade secrets, belonging to Gaussian, Inc.
  
 This software is provided under written license and may be
 used, copied, transmitted, or stored only in accord with that
 written license.
  
 The following legend is applicable only to US Government
 contracts under FAR:
  
                    RESTRICTED RIGHTS LEGEND
  
 Use, reproduction and disclosure by the US Government is
 subject to restrictions as set forth in subparagraphs (a)
 and (c) of the Commercial Computer Software - Restricted
 Rights clause in FAR 52.227-19.
  
 Gaussian, Inc.
 340 Quinnipiac St., Bldg. 40, Wallingford CT 06492
  
  
 ---------------------------------------------------------------
 Warning -- This program may not be used in any manner that
 competes with the business of Gaussian, Inc. or will provide
 assistance to any competitor of Gaussian, Inc.  The licensee
 of this program is prohibited from giving any competitor of
 Gaussian, Inc. access to this program.  By using this program,
 the user acknowledges that Gaussian, Inc. is engaged in the
 business of creating and licensing software in the field of
 computational chemistry and represents and warrants to the
 licensee that it is not a competitor of Gaussian, Inc. and that
 it will not use this program in any manner prohibited above.
 ---------------------------------------------------------------
  

 Cite this work as:
 Gaussian 09, Revision D.01,
 M. J. Frisch, G. W. Trucks, H. B. Schlegel, G. E. Scuseria, 
 M. A. Robb, J. R. Cheeseman, G. Scalmani, V. Barone, B. Mennucci, 
 G. A. Petersson, H. Nakatsuji, M. Caricato, X. Li, H. P. Hratchian, 
 A. F. Izmaylov, J. Bloino, G. Zheng, J. L. Sonnenberg, M. Hada, 
 M. Ehara, K. Toyota, R. Fukuda, J. Hasegawa, M. Ishida, T. Nakajima, 
 Y. Honda, O. Kitao, H. Nakai, T. Vreven, J. A. Montgomery, Jr., 
 J. E. Peralta, F. Ogliaro, M. Bearpark, J. J. Heyd, E. Brothers, 
 K. N. Kudin, V. N. Staroverov, T. Keith, R. Kobayashi, J. Normand, 
 K. Raghavachari, A. Rendell, J. C. Burant, S. S. Iyengar, J. Tomasi, 
 M. Cossi, N. Rega, J. M. Millam, M. Klene, J. E. Knox, J. B. Cross, 
 V. Bakken, C. Adamo, J. Jaramillo, R. Gomperts, R. E. Stratmann, 
 O. Yazyev, A. J. Austin, R. Cammi, C. Pomelli, J. W. Ochterski, 
 R. L. Martin, K. Morokuma, V. G. Zakrzewski, G. A. Voth, 
 P. Salvador, J. J. Dannenberg, S. Dapprich, A. D. Daniels, 
 O. Farkas, J. B. Foresman, J. V. Ortiz, J. Cioslowski, 
 and D. J. Fox, Gaussian, Inc., Wallingford CT, 2013.
 
 ******************************************
 Gaussian 09:  ES64L-G09RevD.01 24-Apr-2013
                20-Aug-2020 
 ******************************************
 %nprocshared=4
 Will use up to    4 processors via shared memory.
 %chk=TS_claisen_PM6_toluene_water.chk
 ----------------------------------------------------------------------
 # opt=(calcfc,ts,noeigentest) pm6 scrf=(cpcm,solvent=water) geom=conne
 ctivity empiricaldispersion=gd3
 ----------------------------------------------------------------------
 1/5=1,10=4,11=1,14=-1,18=20,26=1,38=1,57=2/1,3;
 2/9=110,12=2,17=6,18=5,40=1/2;
 3/5=2,16=1,25=1,41=3900000,70=2101,71=2,72=1,124=31,140=1/1,2,3;
 4/35=1/1;
 5/5=2,35=1,38=5,53=1/2;
 8/6=4,10=90,11=11/1;
 11/6=1,8=1,9=11,15=111,16=1/1,2,10;
 10/6=1,13=1/2;
 6/7=2,8=2,9=2,10=2,28=1/1;
 7/10=1,18=20,25=1/1,2,3,16;
 1/5=1,10=4,11=1,14=-1,18=20,26=1/3(2);
 2/9=110/2;
 99//99;
 2/9=110/2;
 3/5=2,16=1,25=1,41=3900000,70=2105,71=1,72=1,124=31,135=20/1,2,3;
 4/5=5,16=3,35=1/1;
 5/5=2,35=1,38=5,53=1/2;
 7//1,2,3,16;
 1/5=1,11=1,14=-1,18=20,26=1/3(-5);
 2/9=110/2;
 6/7=2,8=2,9=2,10=2,19=2,28=1/1;
 99/9=1/99;
 -------------------
 Title Card Required
 -------------------
 Symbolic Z-matrix:
 Charge =  0 Multiplicity = 1
 C                    -2.42518   2.64131   0.27567 
 C                    -2.69247   1.28224   0.25446 
 C                    -1.67535   0.36164  -0.09655 
 C                    -0.38781   0.84885  -0.41968 
 C                    -0.13803   2.2407   -0.40152 
 C                    -1.14211   3.12717  -0.05461 
 H                    -3.2098    3.3491    0.54679 
 H                    -3.69168   0.92698   0.50716 
 H                     0.86255   2.59254  -0.66628 
 H                    -0.95281   4.19959  -0.03583 
 C                     0.68186  -0.08808  -0.79569 
 C                    -1.88905  -1.07155  -0.15125 
 C                     0.42306  -1.49328  -0.79103 
 H                     1.0346   -2.13133  -1.43893 
 C                    -0.92174  -1.95036  -0.51592 
 H                    -1.11645  -3.02232  -0.59013 
 O                     1.87311   0.35607  -0.99011 
 Cl                   -3.45957  -1.67433   0.249 
 C                     3.05286  -0.0945    0.34672 
 C                     2.75102  -1.47802   0.4399 
 H                     3.43024  -2.17467  -0.05166 
 C                     4.29994   0.32845  -0.37378 
 H                     4.6709   -0.43544  -1.06981 
 H                     4.1114    1.23008  -0.98016 
 H                     5.11457   0.56807   0.3224 
 C                     2.57073   0.86925   1.39501 
 H                     1.54324   0.66743   1.72827 
 H                     3.21246   0.81977   2.28695 
 H                     2.58456   1.90924   1.03955 
 C                     1.50015  -1.93949   0.83615 
 H                     1.30239  -3.01022   0.86236 
 H                     0.88444  -1.37961   1.53994 
 
 Add virtual bond connecting atoms C19        and O17        Dist= 3.48D+00.

 GradGradGradGradGradGradGradGradGradGradGradGradGradGradGradGradGradGrad
 Berny optimization.
 Initialization pass.
                           ----------------------------
                           !    Initial Parameters    !
                           ! (Angstroms and Degrees)  !
 --------------------------                            --------------------------
 ! Name  Definition              Value          Derivative Info.                !
 --------------------------------------------------------------------------------
 ! R1    R(1,2)                  1.3853         calculate D2E/DX2 analytically  !
 ! R2    R(1,6)                  1.4112         calculate D2E/DX2 analytically  !
 ! R3    R(1,7)                  1.0909         calculate D2E/DX2 analytically  !
 ! R4    R(2,3)                  1.4161         calculate D2E/DX2 analytically  !
 ! R5    R(2,8)                  1.0902         calculate D2E/DX2 analytically  !
 ! R6    R(3,4)                  1.4141         calculate D2E/DX2 analytically  !
 ! R7    R(3,12)                 1.4501         calculate D2E/DX2 analytically  !
 ! R8    R(4,5)                  1.4142         calculate D2E/DX2 analytically  !
 ! R9    R(4,11)                 1.4709         calculate D2E/DX2 analytically  !
 ! R10   R(5,6)                  1.3836         calculate D2E/DX2 analytically  !
 ! R11   R(5,9)                  1.0932         calculate D2E/DX2 analytically  !
 ! R12   R(6,10)                 1.0892         calculate D2E/DX2 analytically  !
 ! R13   R(11,13)                1.4288         calculate D2E/DX2 analytically  !
 ! R14   R(11,17)                1.2861         calculate D2E/DX2 analytically  !
 ! R15   R(12,15)                1.3568         calculate D2E/DX2 analytically  !
 ! R16   R(12,18)                1.7292         calculate D2E/DX2 analytically  !
 ! R17   R(13,14)                1.0958         calculate D2E/DX2 analytically  !
 ! R18   R(13,15)                1.4468         calculate D2E/DX2 analytically  !
 ! R19   R(15,16)                1.092          calculate D2E/DX2 analytically  !
 ! R20   R(17,19)                1.839          calculate D2E/DX2 analytically  !
 ! R21   R(19,20)                1.4191         calculate D2E/DX2 analytically  !
 ! R22   R(19,22)                1.5011         calculate D2E/DX2 analytically  !
 ! R23   R(19,26)                1.5034         calculate D2E/DX2 analytically  !
 ! R24   R(20,21)                1.0901         calculate D2E/DX2 analytically  !
 ! R25   R(20,30)                1.3909         calculate D2E/DX2 analytically  !
 ! R26   R(22,23)                1.098          calculate D2E/DX2 analytically  !
 ! R27   R(22,24)                1.1028         calculate D2E/DX2 analytically  !
 ! R28   R(22,25)                1.0981         calculate D2E/DX2 analytically  !
 ! R29   R(26,27)                1.0989         calculate D2E/DX2 analytically  !
 ! R30   R(26,28)                1.0999         calculate D2E/DX2 analytically  !
 ! R31   R(26,29)                1.0991         calculate D2E/DX2 analytically  !
 ! R32   R(30,31)                1.0892         calculate D2E/DX2 analytically  !
 ! R33   R(30,32)                1.0899         calculate D2E/DX2 analytically  !
 ! A1    A(2,1,6)              120.6393         calculate D2E/DX2 analytically  !
 ! A2    A(2,1,7)              120.1035         calculate D2E/DX2 analytically  !
 ! A3    A(6,1,7)              119.257          calculate D2E/DX2 analytically  !
 ! A4    A(1,2,3)              120.2001         calculate D2E/DX2 analytically  !
 ! A5    A(1,2,8)              119.539          calculate D2E/DX2 analytically  !
 ! A6    A(3,2,8)              120.2607         calculate D2E/DX2 analytically  !
 ! A7    A(2,3,4)              119.121          calculate D2E/DX2 analytically  !
 ! A8    A(2,3,12)             123.0961         calculate D2E/DX2 analytically  !
 ! A9    A(4,3,12)             117.7816         calculate D2E/DX2 analytically  !
 ! A10   A(3,4,5)              119.801          calculate D2E/DX2 analytically  !
 ! A11   A(3,4,11)             120.0741         calculate D2E/DX2 analytically  !
 ! A12   A(5,4,11)             120.1167         calculate D2E/DX2 analytically  !
 ! A13   A(4,5,6)              120.372          calculate D2E/DX2 analytically  !
 ! A14   A(4,5,9)              118.3798         calculate D2E/DX2 analytically  !
 ! A15   A(6,5,9)              121.2482         calculate D2E/DX2 analytically  !
 ! A16   A(1,6,5)              119.8627         calculate D2E/DX2 analytically  !
 ! A17   A(1,6,10)             119.5373         calculate D2E/DX2 analytically  !
 ! A18   A(5,6,10)             120.5998         calculate D2E/DX2 analytically  !
 ! A19   A(4,11,13)            119.5972         calculate D2E/DX2 analytically  !
 ! A20   A(4,11,17)            119.4891         calculate D2E/DX2 analytically  !
 ! A21   A(13,11,17)           120.5227         calculate D2E/DX2 analytically  !
 ! A22   A(3,12,15)            123.041          calculate D2E/DX2 analytically  !
 ! A23   A(3,12,18)            118.0117         calculate D2E/DX2 analytically  !
 ! A24   A(15,12,18)           118.9422         calculate D2E/DX2 analytically  !
 ! A25   A(11,13,14)           118.009          calculate D2E/DX2 analytically  !
 ! A26   A(11,13,15)           118.6653         calculate D2E/DX2 analytically  !
 ! A27   A(14,13,15)           116.5644         calculate D2E/DX2 analytically  !
 ! A28   A(12,15,13)           120.6073         calculate D2E/DX2 analytically  !
 ! A29   A(12,15,16)           121.7998         calculate D2E/DX2 analytically  !
 ! A30   A(13,15,16)           117.5772         calculate D2E/DX2 analytically  !
 ! A31   A(11,17,19)           113.5589         calculate D2E/DX2 analytically  !
 ! A32   A(17,19,20)            98.6353         calculate D2E/DX2 analytically  !
 ! A33   A(17,19,22)            96.6043         calculate D2E/DX2 analytically  !
 ! A34   A(17,19,26)            98.2843         calculate D2E/DX2 analytically  !
 ! A35   A(20,19,22)           118.876          calculate D2E/DX2 analytically  !
 ! A36   A(20,19,26)           120.7288         calculate D2E/DX2 analytically  !
 ! A37   A(22,19,26)           114.866          calculate D2E/DX2 analytically  !
 ! A38   A(19,20,21)           117.4456         calculate D2E/DX2 analytically  !
 ! A39   A(19,20,30)           122.2376         calculate D2E/DX2 analytically  !
 ! A40   A(21,20,30)           118.4759         calculate D2E/DX2 analytically  !
 ! A41   A(19,22,23)           112.8878         calculate D2E/DX2 analytically  !
 ! A42   A(19,22,24)           110.6253         calculate D2E/DX2 analytically  !
 ! A43   A(19,22,25)           111.9327         calculate D2E/DX2 analytically  !
 ! A44   A(23,22,24)           106.1411         calculate D2E/DX2 analytically  !
 ! A45   A(23,22,25)           107.6431         calculate D2E/DX2 analytically  !
 ! A46   A(24,22,25)           107.2796         calculate D2E/DX2 analytically  !
 ! A47   A(19,26,27)           113.1785         calculate D2E/DX2 analytically  !
 ! A48   A(19,26,28)           110.4566         calculate D2E/DX2 analytically  !
 ! A49   A(19,26,29)           112.1491         calculate D2E/DX2 analytically  !
 ! A50   A(27,26,28)           106.938          calculate D2E/DX2 analytically  !
 ! A51   A(27,26,29)           106.4759         calculate D2E/DX2 analytically  !
 ! A52   A(28,26,29)           107.3059         calculate D2E/DX2 analytically  !
 ! A53   A(20,30,31)           119.7556         calculate D2E/DX2 analytically  !
 ! A54   A(20,30,32)           121.4376         calculate D2E/DX2 analytically  !
 ! A55   A(31,30,32)           112.762          calculate D2E/DX2 analytically  !
 ! D1    D(6,1,2,3)              0.1905         calculate D2E/DX2 analytically  !
 ! D2    D(6,1,2,8)           -179.6427         calculate D2E/DX2 analytically  !
 ! D3    D(7,1,2,3)           -179.9699         calculate D2E/DX2 analytically  !
 ! D4    D(7,1,2,8)              0.1969         calculate D2E/DX2 analytically  !
 ! D5    D(2,1,6,5)             -0.1004         calculate D2E/DX2 analytically  !
 ! D6    D(2,1,6,10)           179.7616         calculate D2E/DX2 analytically  !
 ! D7    D(7,1,6,5)           -179.9414         calculate D2E/DX2 analytically  !
 ! D8    D(7,1,6,10)            -0.0794         calculate D2E/DX2 analytically  !
 ! D9    D(1,2,3,4)              0.1828         calculate D2E/DX2 analytically  !
 ! D10   D(1,2,3,12)          -179.4028         calculate D2E/DX2 analytically  !
 ! D11   D(8,2,3,4)           -179.9852         calculate D2E/DX2 analytically  !
 ! D12   D(8,2,3,12)             0.4292         calculate D2E/DX2 analytically  !
 ! D13   D(2,3,4,5)             -0.6417         calculate D2E/DX2 analytically  !
 ! D14   D(2,3,4,11)          -179.6041         calculate D2E/DX2 analytically  !
 ! D15   D(12,3,4,5)           178.9659         calculate D2E/DX2 analytically  !
 ! D16   D(12,3,4,11)            0.0035         calculate D2E/DX2 analytically  !
 ! D17   D(2,3,12,15)          178.5178         calculate D2E/DX2 analytically  !
 ! D18   D(2,3,12,18)           -0.6535         calculate D2E/DX2 analytically  !
 ! D19   D(4,3,12,15)           -1.073          calculate D2E/DX2 analytically  !
 ! D20   D(4,3,12,18)          179.7557         calculate D2E/DX2 analytically  !
 ! D21   D(3,4,5,6)              0.7391         calculate D2E/DX2 analytically  !
 ! D22   D(3,4,5,9)           -179.3126         calculate D2E/DX2 analytically  !
 ! D23   D(11,4,5,6)           179.7011         calculate D2E/DX2 analytically  !
 ! D24   D(11,4,5,9)            -0.3506         calculate D2E/DX2 analytically  !
 ! D25   D(3,4,11,13)           -1.9702         calculate D2E/DX2 analytically  !
 ! D26   D(3,4,11,17)         -174.8317         calculate D2E/DX2 analytically  !
 ! D27   D(5,4,11,13)          179.0706         calculate D2E/DX2 analytically  !
 ! D28   D(5,4,11,17)            6.2091         calculate D2E/DX2 analytically  !
 ! D29   D(4,5,6,1)             -0.3663         calculate D2E/DX2 analytically  !
 ! D30   D(4,5,6,10)           179.7732         calculate D2E/DX2 analytically  !
 ! D31   D(9,5,6,1)            179.6869         calculate D2E/DX2 analytically  !
 ! D32   D(9,5,6,10)            -0.1736         calculate D2E/DX2 analytically  !
 ! D33   D(4,11,13,14)         155.0329         calculate D2E/DX2 analytically  !
 ! D34   D(4,11,13,15)           4.7968         calculate D2E/DX2 analytically  !
 ! D35   D(17,11,13,14)        -32.1808         calculate D2E/DX2 analytically  !
 ! D36   D(17,11,13,15)        177.5831         calculate D2E/DX2 analytically  !
 ! D37   D(4,11,17,19)         107.5069         calculate D2E/DX2 analytically  !
 ! D38   D(13,11,17,19)        -65.2872         calculate D2E/DX2 analytically  !
 ! D39   D(3,12,15,13)           4.0582         calculate D2E/DX2 analytically  !
 ! D40   D(3,12,15,16)        -177.4181         calculate D2E/DX2 analytically  !
 ! D41   D(18,12,15,13)       -176.7779         calculate D2E/DX2 analytically  !
 ! D42   D(18,12,15,16)          1.7459         calculate D2E/DX2 analytically  !
 ! D43   D(11,13,15,12)         -5.8808         calculate D2E/DX2 analytically  !
 ! D44   D(11,13,15,16)        175.5346         calculate D2E/DX2 analytically  !
 ! D45   D(14,13,15,12)       -156.5395         calculate D2E/DX2 analytically  !
 ! D46   D(14,13,15,16)         24.876          calculate D2E/DX2 analytically  !
 ! D47   D(11,17,19,20)         48.2374         calculate D2E/DX2 analytically  !
 ! D48   D(11,17,19,22)        168.8545         calculate D2E/DX2 analytically  !
 ! D49   D(11,17,19,26)        -74.746          calculate D2E/DX2 analytically  !
 ! D50   D(17,19,20,21)        100.4603         calculate D2E/DX2 analytically  !
 ! D51   D(17,19,20,30)        -63.8435         calculate D2E/DX2 analytically  !
 ! D52   D(22,19,20,21)         -2.049          calculate D2E/DX2 analytically  !
 ! D53   D(22,19,20,30)       -166.3528         calculate D2E/DX2 analytically  !
 ! D54   D(26,19,20,21)       -154.4805         calculate D2E/DX2 analytically  !
 ! D55   D(26,19,20,30)         41.2156         calculate D2E/DX2 analytically  !
 ! D56   D(17,19,22,23)        -82.5698         calculate D2E/DX2 analytically  !
 ! D57   D(17,19,22,24)         36.2021         calculate D2E/DX2 analytically  !
 ! D58   D(17,19,22,25)        155.7858         calculate D2E/DX2 analytically  !
 ! D59   D(20,19,22,23)         21.1079         calculate D2E/DX2 analytically  !
 ! D60   D(20,19,22,24)        139.8797         calculate D2E/DX2 analytically  !
 ! D61   D(20,19,22,25)       -100.5366         calculate D2E/DX2 analytically  !
 ! D62   D(26,19,22,23)        175.1011         calculate D2E/DX2 analytically  !
 ! D63   D(26,19,22,24)        -66.1271         calculate D2E/DX2 analytically  !
 ! D64   D(26,19,22,25)         53.4566         calculate D2E/DX2 analytically  !
 ! D65   D(17,19,26,27)         64.5374         calculate D2E/DX2 analytically  !
 ! D66   D(17,19,26,28)       -175.5974         calculate D2E/DX2 analytically  !
 ! D67   D(17,19,26,29)        -55.9519         calculate D2E/DX2 analytically  !
 ! D68   D(20,19,26,27)        -40.7145         calculate D2E/DX2 analytically  !
 ! D69   D(20,19,26,28)         79.1507         calculate D2E/DX2 analytically  !
 ! D70   D(20,19,26,29)       -161.2038         calculate D2E/DX2 analytically  !
 ! D71   D(22,19,26,27)        165.8161         calculate D2E/DX2 analytically  !
 ! D72   D(22,19,26,28)        -74.3187         calculate D2E/DX2 analytically  !
 ! D73   D(22,19,26,29)         45.3268         calculate D2E/DX2 analytically  !
 ! D74   D(19,20,30,31)        178.0053         calculate D2E/DX2 analytically  !
 ! D75   D(19,20,30,32)        -31.3252         calculate D2E/DX2 analytically  !
 ! D76   D(21,20,30,31)         13.856          calculate D2E/DX2 analytically  !
 ! D77   D(21,20,30,32)        164.5255         calculate D2E/DX2 analytically  !
 --------------------------------------------------------------------------------
 Trust Radius=3.00D-01 FncErr=1.00D-07 GrdErr=1.00D-07
 Number of steps in this run=    175 maximum allowed number of steps=    192.
 Search for a saddle point of order  1.
 GradGradGradGradGradGradGradGradGradGradGradGradGradGradGradGradGradGrad

                          Input orientation:                          
 ---------------------------------------------------------------------
 Center     Atomic      Atomic             Coordinates (Angstroms)
 Number     Number       Type             X           Y           Z
 ---------------------------------------------------------------------
      1          6           0       -2.425184    2.641312    0.275667
      2          6           0       -2.692473    1.282238    0.254460
      3          6           0       -1.675353    0.361635   -0.096551
      4          6           0       -0.387807    0.848848   -0.419680
      5          6           0       -0.138026    2.240702   -0.401517
      6          6           0       -1.142110    3.127166   -0.054608
      7          1           0       -3.209798    3.349101    0.546788
      8          1           0       -3.691684    0.926975    0.507155
      9          1           0        0.862545    2.592542   -0.666282
     10          1           0       -0.952810    4.199593   -0.035834
     11          6           0        0.681862   -0.088079   -0.795688
     12          6           0       -1.889046   -1.071547   -0.151250
     13          6           0        0.423059   -1.493281   -0.791032
     14          1           0        1.034598   -2.131333   -1.438931
     15          6           0       -0.921743   -1.950364   -0.515920
     16          1           0       -1.116447   -3.022319   -0.590125
     17          8           0        1.873107    0.356068   -0.990108
     18         17           0       -3.459572   -1.674331    0.248998
     19          6           0        3.052860   -0.094500    0.346721
     20          6           0        2.751022   -1.478023    0.439902
     21          1           0        3.430244   -2.174674   -0.051664
     22          6           0        4.299938    0.328449   -0.373783
     23          1           0        4.670897   -0.435442   -1.069812
     24          1           0        4.111399    1.230076   -0.980163
     25          1           0        5.114569    0.568074    0.322403
     26          6           0        2.570732    0.869248    1.395010
     27          1           0        1.543243    0.667431    1.728272
     28          1           0        3.212455    0.819768    2.286946
     29          1           0        2.584556    1.909236    1.039551
     30          6           0        1.500147   -1.939492    0.836151
     31          1           0        1.302392   -3.010218    0.862356
     32          1           0        0.884437   -1.379608    1.539938
 ---------------------------------------------------------------------
                    Distance matrix (angstroms):
                    1          2          3          4          5
     1  C    0.000000
     2  C    1.385271   0.000000
     3  C    2.428522   1.416069   0.000000
     4  C    2.801310   2.440036   1.414059   0.000000
     5  C    2.418710   2.806093   2.446890   1.414206   0.000000
     6  C    1.411175   2.429590   2.816783   2.427547   1.383600
     7  H    1.090913   2.150582   3.419555   3.892166   3.400531
     8  H    2.143959   1.090179   2.179372   3.432307   3.896158
     9  H    3.420352   3.899079   3.426728   2.159783   1.093176
    10  H    2.166370   3.409055   3.905852   3.419658   2.152870
    11  C    4.272132   3.790345   2.499500   1.470852   2.500162
    12  C    3.775583   2.520000   1.450058   2.452283   3.754956
    13  C    5.132757   4.301523   2.885542   2.506187   3.795941
    14  H    6.139062   5.330206   3.919274   3.455950   4.643917
    15  C    4.895961   3.765460   2.467618   2.851305   4.265247
    16  H    5.876998   4.661158   3.465131   3.942829   5.356517
    17  O    5.029894   4.821956   3.659241   2.383265   2.818322
    18  Cl   4.437955   3.054467   2.729102   4.031042   5.175260
    19  C    6.123617   5.908703   4.770802   3.649036   4.024274
    20  C    6.617326   6.106150   4.823372   4.000682   4.783670
    21  H    7.588604   7.037870   5.701052   4.884121   5.687749
    22  C    7.141315   7.085070   5.981811   4.716765   4.832495
    23  H    7.850547   7.676154   6.469734   5.259521   5.543835
    24  H    6.804088   6.915178   5.917893   4.549981   4.406110
    25  H    7.819743   7.839933   6.805967   5.559286   5.559811
    26  C    5.417778   5.401180   4.528980   3.470802   3.527856
    27  H    4.664191   4.526743   3.712526   2.894057   3.136534
    28  H    6.256696   6.262033   5.457253   4.504282   4.524667
    29  H    5.120249   5.371827   4.672539   3.476884   3.098225
    30  C    6.058558   5.319396   4.030995   3.593928   4.657194
    31  H    6.795500   5.895224   4.599550   4.403723   5.589664
    32  H    5.359083   4.640276   3.501792   3.228734   4.233358
                    6          7          8          9         10
     6  C    0.000000
     7  H    2.164779   0.000000
     8  H    3.414198   2.469915   0.000000
     9  H    2.163009   4.316005   4.989195   0.000000
    10  H    1.089168   2.481286   4.301895   2.505113   0.000000
    11  C    3.770129   5.362972   4.675002   2.689818   4.651200
    12  C    4.265729   4.666237   2.770756   4.611080   5.354883
    13  C    4.933620   6.199684   4.947124   4.111284   5.905265
    14  H    5.857151   7.210626   5.956361   4.789737   6.782263
    15  C    5.103203   5.869316   4.122904   4.883061   6.168745
    16  H    6.172812   6.802182   4.840743   5.953896   7.245000
    17  O    4.200676   6.095590   5.790909   2.475463   4.865093
    18  Cl   5.340148   5.038446   2.624369   6.142039   6.392806
    19  C    5.304524   7.149776   6.823344   3.611627   5.884809
    20  C    6.050519   7.670979   6.877281   4.621633   6.795588
    21  H    7.001138   8.657967   7.788091   5.449512   7.735806
    22  C    6.127852   8.146651   8.062277   4.126420   6.533860
    23  H    6.893030   8.890530   8.618339   4.882117   7.360621
    24  H    5.661710   7.773144   7.949345   3.536932   5.946091
    25  H    6.770312   8.779496   8.815500   4.812035   7.080208
    26  C    4.580915   6.346942   6.325304   3.183798   5.055083
    27  H    4.054637   5.583785   5.381724   3.146949   4.671030
    28  H    5.456116   7.118357   7.130658   4.169695   5.845336
    29  H    4.070452   5.990873   6.374909   2.518352   4.349155
    30  C    5.783251   7.087773   5.939695   4.816967   6.668262
    31  H    6.669625   7.803870   6.369337   5.824184   7.607500
    32  H    5.192348   6.333230   5.227605   4.543772   6.081613
                   11         12         13         14         15
    11  C    0.000000
    12  C    2.827026   0.000000
    13  C    1.428843   2.435777   0.000000
    14  H    2.170961   3.365852   1.095839   0.000000
    15  C    2.473444   1.356827   1.446756   2.170707   0.000000
    16  H    3.447599   2.143603   2.179082   2.478169   1.092018
    17  O    1.286130   4.110421   2.358466   2.663025   3.654541
    18  Cl   4.556209   1.729190   4.023589   4.822398   2.664933
    19  C    2.631876   5.062117   3.188561   3.377961   4.470554
    20  C    2.782095   4.695201   2.633409   2.627344   3.824383
    21  H    3.530022   5.433383   3.170824   2.768665   4.382424
    22  C    3.666330   6.349254   4.303834   4.224632   5.699048
    23  H    4.013503   6.654415   4.386442   4.029264   5.820602
    24  H    3.678762   6.479962   4.588714   4.579983   5.971871
    25  H    4.618393   7.208559   5.243967   5.199544   6.594117
    26  C    3.046878   5.103648   3.869473   4.403909   4.878447
    27  H    2.771849   4.282202   3.502910   4.257109   4.238562
    28  H    4.090320   5.962146   4.754458   5.228214   5.711504
    29  H    3.313248   5.506014   4.427214   4.987127   5.441520
    30  C    2.600042   3.635233   2.001736   2.330137   2.773764
    31  H    3.416587   3.869253   2.409983   2.477917   2.823068
    32  H    2.676608   3.263009   2.378910   3.075923   2.795461
                   16         17         18         19         20
    16  H    0.000000
    17  O    4.528898   0.000000
    18  Cl   2.830448   5.839124   0.000000
    19  C    5.180051   1.839005   6.702029   0.000000
    20  C    4.289886   2.485871   6.216628   1.419128   0.000000
    21  H    4.656269   3.116089   6.914500   2.151338   1.090093
    22  C    6.372729   2.504022   8.037971   1.501071   2.514869
    23  H    6.357309   2.908689   8.329384   2.177350   2.655585
    24  H    6.750212   2.402902   8.201586   2.153051   3.346791
    25  H    7.249082   3.503528   8.862825   2.165696   3.128366
    26  C    5.716672   2.537483   6.644374   1.503385   2.540554
    27  H    5.105210   2.755966   5.718414   2.183613   2.778777
    28  H    6.463634   3.570428   7.408759   2.150774   2.984013
    29  H    6.377578   2.652924   7.070955   2.171239   3.443953
    30  C    3.170701   2.957011   5.001387   2.460580   1.390919
    31  H    2.821459   3.884485   4.983684   3.439684   2.150492
    32  H    3.352492   3.223534   4.541344   2.788786   2.168849
                   21         22         23         24         25
    21  H    0.000000
    22  C    2.669411   0.000000
    23  H    2.366595   1.097997   0.000000
    24  H    3.594218   1.102803   1.759268   0.000000
    25  H    3.240300   1.098052   1.772612   1.772364   0.000000
    26  C    3.478087   2.532044   3.491168   2.853997   2.777102
    27  H    3.847922   3.483233   4.339104   3.774601   3.839363
    28  H    3.805681   2.916075   3.869164   3.413276   2.746055
    29  H    4.310946   2.727441   3.781500   2.621403   2.951946
    30  C    2.137475   3.800832   3.993559   4.490411   4.428981
    31  H    2.461975   4.654033   4.659353   5.409759   5.256274
    32  H    3.105875   4.271467   4.694627   4.855373   4.813509
                   26         27         28         29         30
    26  C    0.000000
    27  H    1.098875   0.000000
    28  H    1.099912   1.766803   0.000000
    29  H    1.099144   1.760894   1.771212   0.000000
    30  C    3.057367   2.755682   3.556729   4.003751   0.000000
    31  H    4.116147   3.785885   4.510719   5.086882   1.089150
    32  H    2.814596   2.158672   3.288608   3.735945   1.089901
                   31         32
    31  H    0.000000
    32  H    1.814578   0.000000
 Stoichiometry    C15H15ClO
 Framework group  C1[X(C15H15ClO)]
 Deg. of freedom    90
 Full point group                 C1      NOp   1
 Largest Abelian subgroup         C1      NOp   1
 Largest concise Abelian subgroup C1      NOp   1
                         Standard orientation:                         
 ---------------------------------------------------------------------
 Center     Atomic      Atomic             Coordinates (Angstroms)
 Number     Number       Type             X           Y           Z
 ---------------------------------------------------------------------
      1          6           0       -2.425184    2.641312    0.275667
      2          6           0       -2.692473    1.282238    0.254460
      3          6           0       -1.675353    0.361635   -0.096551
      4          6           0       -0.387807    0.848848   -0.419680
      5          6           0       -0.138026    2.240702   -0.401517
      6          6           0       -1.142110    3.127166   -0.054608
      7          1           0       -3.209797    3.349102    0.546788
      8          1           0       -3.691684    0.926976    0.507155
      9          1           0        0.862545    2.592542   -0.666282
     10          1           0       -0.952809    4.199593   -0.035834
     11          6           0        0.681862   -0.088079   -0.795688
     12          6           0       -1.889046   -1.071547   -0.151250
     13          6           0        0.423059   -1.493281   -0.791032
     14          1           0        1.034598   -2.131333   -1.438931
     15          6           0       -0.921743   -1.950364   -0.515920
     16          1           0       -1.116447   -3.022319   -0.590125
     17          8           0        1.873107    0.356068   -0.990108
     18         17           0       -3.459572   -1.674330    0.248998
     19          6           0        3.052860   -0.094500    0.346721
     20          6           0        2.751022   -1.478023    0.439902
     21          1           0        3.430244   -2.174674   -0.051664
     22          6           0        4.299938    0.328448   -0.373783
     23          1           0        4.670897   -0.435443   -1.069812
     24          1           0        4.111399    1.230075   -0.980163
     25          1           0        5.114569    0.568073    0.322403
     26          6           0        2.570732    0.869248    1.395010
     27          1           0        1.543243    0.667431    1.728272
     28          1           0        3.212455    0.819768    2.286946
     29          1           0        2.584556    1.909236    1.039551
     30          6           0        1.500147   -1.939492    0.836151
     31          1           0        1.302392   -3.010218    0.862356
     32          1           0        0.884437   -1.379608    1.539938
 ---------------------------------------------------------------------
 Rotational constants (GHZ):      0.6926351      0.3372797      0.2485954
 Standard basis: VSTO-6G (5D, 7F)
 There are    89 symmetry adapted cartesian basis functions of A   symmetry.
 There are    88 symmetry adapted basis functions of A   symmetry.
    88 basis functions,   534 primitive gaussians,    89 cartesian basis functions
    44 alpha electrons       44 beta electrons
       nuclear repulsion energy       658.1004205816 Hartrees.
 Integral buffers will be    131072 words long.
 Regular integral format.
 Two-electron integral symmetry is turned off.
 Nuclear repulsion after empirical dispersion term =      658.0889776845 Hartrees.
 Force inversion solution in PCM.
 ------------------------------------------------------------------------------
 Polarizable Continuum Model (PCM)
 =================================
 Model                : C-PCM.
 Atomic radii         : UFF (Universal Force Field).
 Polarization charges : Total charges.
 Charge compensation  : None.
 Solution method      : Matrix inversion.
 Cavity type          : Scaled VdW (van der Waals Surface) (Alpha=1.100).
 Cavity algorithm     : GePol (No added spheres)
                        Default sphere list used, NSphG=   32.
                        Lebedev-Laikov grids with approx.  5.0 points / Ang**2.
                        Smoothing algorithm: Karplus/York (Gamma=1.0000).
                        Polarization charges: spherical gaussians, with
                                              point-specific exponents (IZeta= 3).
                        Self-potential: point-specific (ISelfS= 7).
                        Self-field    : sphere-specific E.n sum rule (ISelfD= 2).
 1st derivatives      : Analytical E(r).r(x)/FMM algorithm (CHGder, D1EAlg=3).
                        Cavity 1st derivative terms included.
 2nd derivatives      : Analytical E(r).r(xy)/FMM algorithm (CHGder, D2EAlg=3).
                        Cavity 2nd derivative terms included.
 Solvent              : Water, Eps=  78.355300 Eps(inf)=   1.777849
 ------------------------------------------------------------------------------
 Do NDO integrals.
 One-electron integrals computed using PRISM.
 PrsmSu:  requested number of processors reduced to:   2 ShMem   1 Linda.
 NBasis=    88 RedAO= F EigKep=  0.00D+00  NBF=    88
 NBsUse=    88 1.00D-04 EigRej=  0.00D+00 NBFU=    88
 Nonelectrostatic core Hamiltonian diagonalized for initial guess.
 Overlap will be assumed to be unity.
 Keep J ints in memory in canonical form, NReq=9735650.
 Requested convergence on RMS density matrix=1.00D-08 within 128 cycles.
 Requested convergence on MAX density matrix=1.00D-06.
 Requested convergence on             energy=1.00D-06.
 No special actions if energy rises.
 Inv3:  Mode=1 IEnd=    15526875.
 Iteration    1 A*A^-1 deviation from unit magnitude is 5.44D-15 for   2235.
 Iteration    1 A*A^-1 deviation from orthogonality  is 2.65D-15 for    664    338.
 Iteration    1 A^-1*A deviation from unit magnitude is 5.22D-15 for   2274.
 Iteration    1 A^-1*A deviation from orthogonality  is 2.00D-15 for   2274   2205.
 Error on total polarization charges = -0.00005
 SCF Done:  E(RPM6D3) =  0.149178895613E-01 A.U. after   22 cycles
            NFock= 21  Conv=0.60D-08     -V/T= 1.0003
 Range of M.O.s used for correlation:     1    88
 NBasis=    88 NAE=    44 NBE=    44 NFC=     0 NFV=     0
 NROrb=     88 NOA=    44 NOB=    44 NVA=    44 NVB=    44
 PrsmSu:  requested number of processors reduced to:   1 ShMem   1 Linda.
 Symmetrizing basis deriv contribution to polar:
 IMax=3 JMax=2 DiffMx= 0.00D+00
 G2DrvN: will do    33 centers at a time, making    1 passes.
 Calling FoFCou, ICntrl=  3107 FMM=F I1Cent=   0 AccDes= 0.00D+00.
 NEqPCM:  Using equilibrium solvation (IEInf=0, Eps=  78.3553, EpsInf=   1.7778)
 G2PCM: DoFxE=T DoFxN=T DoGrad=T DoDP/DQ/DG/TGxP=FFFF NFrqRd=   0 IEInf=0 SqF1=F DoCFld=F IF1Alg=4.
 CoulSu:  requested number of processors reduced to:   3 ShMem   1 Linda.
 End of G2Drv F.D. properties file   721 does not exist.
 End of G2Drv F.D. properties file   722 does not exist.
 End of G2Drv F.D. properties file   788 does not exist.
          IDoAtm=11111111111111111111111111111111
 NEqPCM:  Using equilibrium solvation (IEInf=0, Eps=  78.3553, EpsInf=   1.7778)
          Differentiating once with respect to nuclear coordinates.
          Electric field/nuclear overlap derivatives assumed to be zero.
 Keep J ints in memory in canonical form, NReq=13282710.
          There are    99 degrees of freedom in the 1st order CPHF.  IDoFFX=5 NUNeed=    99.
 LinEq1:  Iter=  0 NonCon=    96 RMS=8.64D-03 Max=8.47D-02 NDo=    96
 AX will form    99 AO Fock derivatives at one time.
 LinEq1:  Iter=  1 NonCon=    96 RMS=1.63D-03 Max=2.77D-02 NDo=    99
 LinEq1:  Iter=  2 NonCon=    96 RMS=4.48D-04 Max=7.94D-03 NDo=    99
 LinEq1:  Iter=  3 NonCon=    96 RMS=1.06D-04 Max=1.49D-03 NDo=    99
 LinEq1:  Iter=  4 NonCon=    96 RMS=1.94D-05 Max=2.89D-04 NDo=    99
 LinEq1:  Iter=  5 NonCon=    96 RMS=4.69D-06 Max=7.43D-05 NDo=    99
 LinEq1:  Iter=  6 NonCon=    96 RMS=1.20D-06 Max=1.85D-05 NDo=    99
 LinEq1:  Iter=  7 NonCon=    86 RMS=2.64D-07 Max=4.10D-06 NDo=    99
 LinEq1:  Iter=  8 NonCon=    42 RMS=6.20D-08 Max=8.26D-07 NDo=    99
 LinEq1:  Iter=  9 NonCon=     4 RMS=1.40D-08 Max=3.31D-07 NDo=    99
 LinEq1:  Iter= 10 NonCon=     0 RMS=2.74D-09 Max=4.53D-08 NDo=    99
 Linear equations converged to 1.000D-08 1.000D-07 after    10 iterations.
 End of Minotr F.D. properties file   721 does not exist.
 End of Minotr F.D. properties file   722 does not exist.
 End of Minotr F.D. properties file   788 does not exist.

 **********************************************************************

            Population analysis using the SCF density.

 **********************************************************************

 Orbital symmetries:
       Occupied  (A) (A) (A) (A) (A) (A) (A) (A) (A) (A) (A) (A)
                 (A) (A) (A) (A) (A) (A) (A) (A) (A) (A) (A) (A)
                 (A) (A) (A) (A) (A) (A) (A) (A) (A) (A) (A) (A)
                 (A) (A) (A) (A) (A) (A) (A) (A)
       Virtual   (A) (A) (A) (A) (A) (A) (A) (A) (A) (A) (A) (A)
                 (A) (A) (A) (A) (A) (A) (A) (A) (A) (A) (A) (A)
                 (A) (A) (A) (A) (A) (A) (A) (A) (A) (A) (A) (A)
                 (A) (A) (A) (A) (A) (A) (A) (A)
 The electronic state is 1-A.
 Alpha  occ. eigenvalues --   -1.13627  -1.11228  -1.07855  -1.06238  -1.00553
 Alpha  occ. eigenvalues --   -0.98039  -0.96394  -0.94660  -0.91128  -0.89402
 Alpha  occ. eigenvalues --   -0.82174  -0.81047  -0.80017  -0.75922  -0.69117
 Alpha  occ. eigenvalues --   -0.66197  -0.65293  -0.62907  -0.60410  -0.59761
 Alpha  occ. eigenvalues --   -0.57146  -0.56807  -0.56337  -0.54529  -0.54258
 Alpha  occ. eigenvalues --   -0.53019  -0.52153  -0.50434  -0.50235  -0.49450
 Alpha  occ. eigenvalues --   -0.48900  -0.48268  -0.47355  -0.46556  -0.46297
 Alpha  occ. eigenvalues --   -0.45512  -0.44730  -0.42409  -0.41390  -0.39496
 Alpha  occ. eigenvalues --   -0.38769  -0.37623  -0.34356  -0.31512
 Alpha virt. eigenvalues --   -0.03165  -0.02546   0.00777   0.02081   0.02505
 Alpha virt. eigenvalues --    0.03805   0.07455   0.09486   0.12040   0.12646
 Alpha virt. eigenvalues --    0.13753   0.14100   0.14270   0.14838   0.15182
 Alpha virt. eigenvalues --    0.15907   0.16224   0.16603   0.16955   0.17457
 Alpha virt. eigenvalues --    0.18179   0.18496   0.19082   0.19604   0.19636
 Alpha virt. eigenvalues --    0.20200   0.20403   0.20433   0.20529   0.20826
 Alpha virt. eigenvalues --    0.21076   0.21228   0.21633   0.21817   0.22039
 Alpha virt. eigenvalues --    0.22182   0.23120   0.24113   0.24453   3.24080
 Alpha virt. eigenvalues --    3.24153   3.24299   3.25251   3.25302
          Condensed to atoms (all electrons):
               1          2          3          4          5          6
     1  C    4.085246   0.000000   0.000000   0.000000   0.000000   0.000000
     2  C    0.000000   4.212733   0.000000   0.000000   0.000000   0.000000
     3  C    0.000000   0.000000   3.919492   0.000000   0.000000   0.000000
     4  C    0.000000   0.000000   0.000000   4.178357   0.000000   0.000000
     5  C    0.000000   0.000000   0.000000   0.000000   4.074777   0.000000
     6  C    0.000000   0.000000   0.000000   0.000000   0.000000   4.195180
     7  H    0.000000   0.000000   0.000000   0.000000   0.000000   0.000000
     8  H    0.000000   0.000000   0.000000   0.000000   0.000000   0.000000
     9  H    0.000000   0.000000   0.000000   0.000000   0.000000   0.000000
    10  H    0.000000   0.000000   0.000000   0.000000   0.000000   0.000000
    11  C    0.000000   0.000000   0.000000   0.000000   0.000000   0.000000
    12  C    0.000000   0.000000   0.000000   0.000000   0.000000   0.000000
    13  C    0.000000   0.000000   0.000000   0.000000   0.000000   0.000000
    14  H    0.000000   0.000000   0.000000   0.000000   0.000000   0.000000
    15  C    0.000000   0.000000   0.000000   0.000000   0.000000   0.000000
    16  H    0.000000   0.000000   0.000000   0.000000   0.000000   0.000000
    17  O    0.000000   0.000000   0.000000   0.000000   0.000000   0.000000
    18  Cl   0.000000   0.000000   0.000000   0.000000   0.000000   0.000000
    19  C    0.000000   0.000000   0.000000   0.000000   0.000000   0.000000
    20  C    0.000000   0.000000   0.000000   0.000000   0.000000   0.000000
    21  H    0.000000   0.000000   0.000000   0.000000   0.000000   0.000000
    22  C    0.000000   0.000000   0.000000   0.000000   0.000000   0.000000
    23  H    0.000000   0.000000   0.000000   0.000000   0.000000   0.000000
    24  H    0.000000   0.000000   0.000000   0.000000   0.000000   0.000000
    25  H    0.000000   0.000000   0.000000   0.000000   0.000000   0.000000
    26  C    0.000000   0.000000   0.000000   0.000000   0.000000   0.000000
    27  H    0.000000   0.000000   0.000000   0.000000   0.000000   0.000000
    28  H    0.000000   0.000000   0.000000   0.000000   0.000000   0.000000
    29  H    0.000000   0.000000   0.000000   0.000000   0.000000   0.000000
    30  C    0.000000   0.000000   0.000000   0.000000   0.000000   0.000000
    31  H    0.000000   0.000000   0.000000   0.000000   0.000000   0.000000
    32  H    0.000000   0.000000   0.000000   0.000000   0.000000   0.000000
               7          8          9         10         11         12
     1  C    0.000000   0.000000   0.000000   0.000000   0.000000   0.000000
     2  C    0.000000   0.000000   0.000000   0.000000   0.000000   0.000000
     3  C    0.000000   0.000000   0.000000   0.000000   0.000000   0.000000
     4  C    0.000000   0.000000   0.000000   0.000000   0.000000   0.000000
     5  C    0.000000   0.000000   0.000000   0.000000   0.000000   0.000000
     6  C    0.000000   0.000000   0.000000   0.000000   0.000000   0.000000
     7  H    0.844095   0.000000   0.000000   0.000000   0.000000   0.000000
     8  H    0.000000   0.828584   0.000000   0.000000   0.000000   0.000000
     9  H    0.000000   0.000000   0.834737   0.000000   0.000000   0.000000
    10  H    0.000000   0.000000   0.000000   0.835656   0.000000   0.000000
    11  C    0.000000   0.000000   0.000000   0.000000   3.568033   0.000000
    12  C    0.000000   0.000000   0.000000   0.000000   0.000000   4.080386
    13  C    0.000000   0.000000   0.000000   0.000000   0.000000   0.000000
    14  H    0.000000   0.000000   0.000000   0.000000   0.000000   0.000000
    15  C    0.000000   0.000000   0.000000   0.000000   0.000000   0.000000
    16  H    0.000000   0.000000   0.000000   0.000000   0.000000   0.000000
    17  O    0.000000   0.000000   0.000000   0.000000   0.000000   0.000000
    18  Cl   0.000000   0.000000   0.000000   0.000000   0.000000   0.000000
    19  C    0.000000   0.000000   0.000000   0.000000   0.000000   0.000000
    20  C    0.000000   0.000000   0.000000   0.000000   0.000000   0.000000
    21  H    0.000000   0.000000   0.000000   0.000000   0.000000   0.000000
    22  C    0.000000   0.000000   0.000000   0.000000   0.000000   0.000000
    23  H    0.000000   0.000000   0.000000   0.000000   0.000000   0.000000
    24  H    0.000000   0.000000   0.000000   0.000000   0.000000   0.000000
    25  H    0.000000   0.000000   0.000000   0.000000   0.000000   0.000000
    26  C    0.000000   0.000000   0.000000   0.000000   0.000000   0.000000
    27  H    0.000000   0.000000   0.000000   0.000000   0.000000   0.000000
    28  H    0.000000   0.000000   0.000000   0.000000   0.000000   0.000000
    29  H    0.000000   0.000000   0.000000   0.000000   0.000000   0.000000
    30  C    0.000000   0.000000   0.000000   0.000000   0.000000   0.000000
    31  H    0.000000   0.000000   0.000000   0.000000   0.000000   0.000000
    32  H    0.000000   0.000000   0.000000   0.000000   0.000000   0.000000
              13         14         15         16         17         18
     1  C    0.000000   0.000000   0.000000   0.000000   0.000000   0.000000
     2  C    0.000000   0.000000   0.000000   0.000000   0.000000   0.000000
     3  C    0.000000   0.000000   0.000000   0.000000   0.000000   0.000000
     4  C    0.000000   0.000000   0.000000   0.000000   0.000000   0.000000
     5  C    0.000000   0.000000   0.000000   0.000000   0.000000   0.000000
     6  C    0.000000   0.000000   0.000000   0.000000   0.000000   0.000000
     7  H    0.000000   0.000000   0.000000   0.000000   0.000000   0.000000
     8  H    0.000000   0.000000   0.000000   0.000000   0.000000   0.000000
     9  H    0.000000   0.000000   0.000000   0.000000   0.000000   0.000000
    10  H    0.000000   0.000000   0.000000   0.000000   0.000000   0.000000
    11  C    0.000000   0.000000   0.000000   0.000000   0.000000   0.000000
    12  C    0.000000   0.000000   0.000000   0.000000   0.000000   0.000000
    13  C    4.365645   0.000000   0.000000   0.000000   0.000000   0.000000
    14  H    0.000000   0.807475   0.000000   0.000000   0.000000   0.000000
    15  C    0.000000   0.000000   4.076605   0.000000   0.000000   0.000000
    16  H    0.000000   0.000000   0.000000   0.830731   0.000000   0.000000
    17  O    0.000000   0.000000   0.000000   0.000000   6.588480   0.000000
    18  Cl   0.000000   0.000000   0.000000   0.000000   0.000000   7.104488
    19  C    0.000000   0.000000   0.000000   0.000000   0.000000   0.000000
    20  C    0.000000   0.000000   0.000000   0.000000   0.000000   0.000000
    21  H    0.000000   0.000000   0.000000   0.000000   0.000000   0.000000
    22  C    0.000000   0.000000   0.000000   0.000000   0.000000   0.000000
    23  H    0.000000   0.000000   0.000000   0.000000   0.000000   0.000000
    24  H    0.000000   0.000000   0.000000   0.000000   0.000000   0.000000
    25  H    0.000000   0.000000   0.000000   0.000000   0.000000   0.000000
    26  C    0.000000   0.000000   0.000000   0.000000   0.000000   0.000000
    27  H    0.000000   0.000000   0.000000   0.000000   0.000000   0.000000
    28  H    0.000000   0.000000   0.000000   0.000000   0.000000   0.000000
    29  H    0.000000   0.000000   0.000000   0.000000   0.000000   0.000000
    30  C    0.000000   0.000000   0.000000   0.000000   0.000000   0.000000
    31  H    0.000000   0.000000   0.000000   0.000000   0.000000   0.000000
    32  H    0.000000   0.000000   0.000000   0.000000   0.000000   0.000000
              19         20         21         22         23         24
     1  C    0.000000   0.000000   0.000000   0.000000   0.000000   0.000000
     2  C    0.000000   0.000000   0.000000   0.000000   0.000000   0.000000
     3  C    0.000000   0.000000   0.000000   0.000000   0.000000   0.000000
     4  C    0.000000   0.000000   0.000000   0.000000   0.000000   0.000000
     5  C    0.000000   0.000000   0.000000   0.000000   0.000000   0.000000
     6  C    0.000000   0.000000   0.000000   0.000000   0.000000   0.000000
     7  H    0.000000   0.000000   0.000000   0.000000   0.000000   0.000000
     8  H    0.000000   0.000000   0.000000   0.000000   0.000000   0.000000
     9  H    0.000000   0.000000   0.000000   0.000000   0.000000   0.000000
    10  H    0.000000   0.000000   0.000000   0.000000   0.000000   0.000000
    11  C    0.000000   0.000000   0.000000   0.000000   0.000000   0.000000
    12  C    0.000000   0.000000   0.000000   0.000000   0.000000   0.000000
    13  C    0.000000   0.000000   0.000000   0.000000   0.000000   0.000000
    14  H    0.000000   0.000000   0.000000   0.000000   0.000000   0.000000
    15  C    0.000000   0.000000   0.000000   0.000000   0.000000   0.000000
    16  H    0.000000   0.000000   0.000000   0.000000   0.000000   0.000000
    17  O    0.000000   0.000000   0.000000   0.000000   0.000000   0.000000
    18  Cl   0.000000   0.000000   0.000000   0.000000   0.000000   0.000000
    19  C    3.486740   0.000000   0.000000   0.000000   0.000000   0.000000
    20  C    0.000000   4.471253   0.000000   0.000000   0.000000   0.000000
    21  H    0.000000   0.000000   0.822232   0.000000   0.000000   0.000000
    22  C    0.000000   0.000000   0.000000   4.572387   0.000000   0.000000
    23  H    0.000000   0.000000   0.000000   0.000000   0.820515   0.000000
    24  H    0.000000   0.000000   0.000000   0.000000   0.000000   0.807215
    25  H    0.000000   0.000000   0.000000   0.000000   0.000000   0.000000
    26  C    0.000000   0.000000   0.000000   0.000000   0.000000   0.000000
    27  H    0.000000   0.000000   0.000000   0.000000   0.000000   0.000000
    28  H    0.000000   0.000000   0.000000   0.000000   0.000000   0.000000
    29  H    0.000000   0.000000   0.000000   0.000000   0.000000   0.000000
    30  C    0.000000   0.000000   0.000000   0.000000   0.000000   0.000000
    31  H    0.000000   0.000000   0.000000   0.000000   0.000000   0.000000
    32  H    0.000000   0.000000   0.000000   0.000000   0.000000   0.000000
              25         26         27         28         29         30
     1  C    0.000000   0.000000   0.000000   0.000000   0.000000   0.000000
     2  C    0.000000   0.000000   0.000000   0.000000   0.000000   0.000000
     3  C    0.000000   0.000000   0.000000   0.000000   0.000000   0.000000
     4  C    0.000000   0.000000   0.000000   0.000000   0.000000   0.000000
     5  C    0.000000   0.000000   0.000000   0.000000   0.000000   0.000000
     6  C    0.000000   0.000000   0.000000   0.000000   0.000000   0.000000
     7  H    0.000000   0.000000   0.000000   0.000000   0.000000   0.000000
     8  H    0.000000   0.000000   0.000000   0.000000   0.000000   0.000000
     9  H    0.000000   0.000000   0.000000   0.000000   0.000000   0.000000
    10  H    0.000000   0.000000   0.000000   0.000000   0.000000   0.000000
    11  C    0.000000   0.000000   0.000000   0.000000   0.000000   0.000000
    12  C    0.000000   0.000000   0.000000   0.000000   0.000000   0.000000
    13  C    0.000000   0.000000   0.000000   0.000000   0.000000   0.000000
    14  H    0.000000   0.000000   0.000000   0.000000   0.000000   0.000000
    15  C    0.000000   0.000000   0.000000   0.000000   0.000000   0.000000
    16  H    0.000000   0.000000   0.000000   0.000000   0.000000   0.000000
    17  O    0.000000   0.000000   0.000000   0.000000   0.000000   0.000000
    18  Cl   0.000000   0.000000   0.000000   0.000000   0.000000   0.000000
    19  C    0.000000   0.000000   0.000000   0.000000   0.000000   0.000000
    20  C    0.000000   0.000000   0.000000   0.000000   0.000000   0.000000
    21  H    0.000000   0.000000   0.000000   0.000000   0.000000   0.000000
    22  C    0.000000   0.000000   0.000000   0.000000   0.000000   0.000000
    23  H    0.000000   0.000000   0.000000   0.000000   0.000000   0.000000
    24  H    0.000000   0.000000   0.000000   0.000000   0.000000   0.000000
    25  H    0.813452   0.000000   0.000000   0.000000   0.000000   0.000000
    26  C    0.000000   4.575791   0.000000   0.000000   0.000000   0.000000
    27  H    0.000000   0.000000   0.817323   0.000000   0.000000   0.000000
    28  H    0.000000   0.000000   0.000000   0.813216   0.000000   0.000000
    29  H    0.000000   0.000000   0.000000   0.000000   0.812929   0.000000
    30  C    0.000000   0.000000   0.000000   0.000000   0.000000   4.037652
    31  H    0.000000   0.000000   0.000000   0.000000   0.000000   0.000000
    32  H    0.000000   0.000000   0.000000   0.000000   0.000000   0.000000
              31         32
     1  C    0.000000   0.000000
     2  C    0.000000   0.000000
     3  C    0.000000   0.000000
     4  C    0.000000   0.000000
     5  C    0.000000   0.000000
     6  C    0.000000   0.000000
     7  H    0.000000   0.000000
     8  H    0.000000   0.000000
     9  H    0.000000   0.000000
    10  H    0.000000   0.000000
    11  C    0.000000   0.000000
    12  C    0.000000   0.000000
    13  C    0.000000   0.000000
    14  H    0.000000   0.000000
    15  C    0.000000   0.000000
    16  H    0.000000   0.000000
    17  O    0.000000   0.000000
    18  Cl   0.000000   0.000000
    19  C    0.000000   0.000000
    20  C    0.000000   0.000000
    21  H    0.000000   0.000000
    22  C    0.000000   0.000000
    23  H    0.000000   0.000000
    24  H    0.000000   0.000000
    25  H    0.000000   0.000000
    26  C    0.000000   0.000000
    27  H    0.000000   0.000000
    28  H    0.000000   0.000000
    29  H    0.000000   0.000000
    30  C    0.000000   0.000000
    31  H    0.857310   0.000000
    32  H    0.000000   0.861288
 Mulliken charges:
               1
     1  C   -0.085246
     2  C   -0.212733
     3  C    0.080508
     4  C   -0.178357
     5  C   -0.074777
     6  C   -0.195180
     7  H    0.155905
     8  H    0.171416
     9  H    0.165263
    10  H    0.164344
    11  C    0.431967
    12  C   -0.080386
    13  C   -0.365645
    14  H    0.192525
    15  C   -0.076605
    16  H    0.169269
    17  O   -0.588480
    18  Cl  -0.104488
    19  C    0.513260
    20  C   -0.471253
    21  H    0.177768
    22  C   -0.572387
    23  H    0.179485
    24  H    0.192785
    25  H    0.186548
    26  C   -0.575791
    27  H    0.182677
    28  H    0.186784
    29  H    0.187071
    30  C   -0.037652
    31  H    0.142690
    32  H    0.138712
 Sum of Mulliken charges =   0.00000
 Mulliken charges with hydrogens summed into heavy atoms:
               1
     1  C    0.070659
     2  C   -0.041317
     3  C    0.080508
     4  C   -0.178357
     5  C    0.090486
     6  C   -0.030835
    11  C    0.431967
    12  C   -0.080386
    13  C   -0.173119
    15  C    0.092664
    17  O   -0.588480
    18  Cl  -0.104488
    19  C    0.513260
    20  C   -0.293484
    22  C   -0.013569
    26  C   -0.019259
    30  C    0.243751
 APT charges:
               1
     1  C   -0.085246
     2  C   -0.212733
     3  C    0.080508
     4  C   -0.178357
     5  C   -0.074777
     6  C   -0.195180
     7  H    0.155905
     8  H    0.171416
     9  H    0.165263
    10  H    0.164344
    11  C    0.431967
    12  C   -0.080386
    13  C   -0.365645
    14  H    0.192525
    15  C   -0.076605
    16  H    0.169269
    17  O   -0.588480
    18  Cl  -0.104488
    19  C    0.513260
    20  C   -0.471253
    21  H    0.177768
    22  C   -0.572387
    23  H    0.179485
    24  H    0.192785
    25  H    0.186548
    26  C   -0.575791
    27  H    0.182677
    28  H    0.186784
    29  H    0.187071
    30  C   -0.037652
    31  H    0.142690
    32  H    0.138712
 Sum of APT charges =   0.00000
 APT charges with hydrogens summed into heavy atoms:
               1
     1  C    0.070659
     2  C   -0.041317
     3  C    0.080508
     4  C   -0.178357
     5  C    0.090486
     6  C   -0.030835
    11  C    0.431967
    12  C   -0.080386
    13  C   -0.173119
    15  C    0.092664
    17  O   -0.588480
    18  Cl  -0.104488
    19  C    0.513260
    20  C   -0.293484
    22  C   -0.013569
    26  C   -0.019259
    30  C    0.243751
 Charge=              0.0000 electrons
 Dipole moment (field-independent basis, Debye):
    X=              2.4917    Y=              0.6048    Z=              2.3339  Tot=              3.4672
 N-N= 6.580889776845D+02 E-N=-1.203349966171D+03  KE=-5.673349430101D+01
  Exact polarizability:   0.000   0.000   0.000   0.000   0.000   0.000
 Approx polarizability: 170.370  -1.229 150.422 -16.559   0.319  50.703
 PrsmSu:  requested number of processors reduced to:   1 ShMem   1 Linda.
 D2PCM: C-PCM CHGder 2nd derivatives, FixD1E=F FixD2E=F DoIter=F DoCFld=F I1PDM=0
 Calling FoFJK, ICntrl=    100147 FMM=F ISym2X=0 I1Cent= 0 IOpClX= 0 NMat=1 NMatS=1 NMatT=0.
 CoulSu:  requested number of processors reduced to:   2 ShMem   1 Linda.
 ***** Axes restored to original set *****
 -------------------------------------------------------------------
 Center     Atomic                   Forces (Hartrees/Bohr)
 Number     Number              X              Y              Z
 -------------------------------------------------------------------
      1        6           0.000056910   -0.000319313   -0.000024402
      2        6           0.000085865   -0.000127590   -0.000126784
      3        6          -0.000122536   -0.000462602    0.000119661
      4        6           0.000394908   -0.000460937   -0.000368356
      5        6          -0.000173310    0.000161830   -0.000047270
      6        6           0.000180784   -0.000462575   -0.000196527
      7        1          -0.000306192    0.000316326    0.000134419
      8        1          -0.000051090    0.000200637    0.000092509
      9        1           0.000043891    0.000257416    0.000256339
     10        1           0.000078995    0.000457177    0.000076139
     11        6          -0.002018885   -0.000864363    0.000921745
     12        6           0.000238359    0.000950211   -0.000175746
     13        6          -0.001000985    0.001334289   -0.001286366
     14        1           0.000024239   -0.000516669    0.000283678
     15        6           0.000823168    0.000224188   -0.000195890
     16        1           0.000166575   -0.000532829    0.000011835
     17        8           0.000334020    0.000227056   -0.001577978
     18       17          -0.000393110   -0.000188269    0.000229475
     19        6           0.001422452    0.001090148    0.001980959
     20        6          -0.000957473   -0.000417468   -0.000527666
     21        1           0.000163399   -0.000190956    0.000055725
     22        6          -0.001522294   -0.000425009   -0.001058214
     23        1           0.000533200   -0.000022142    0.000237439
     24        1           0.000572947    0.000198680    0.000443651
     25        1           0.000298961    0.000161670    0.000213035
     26        6          -0.000470256   -0.000651893   -0.001260245
     27        1           0.000087675    0.000037709    0.000277670
     28        1           0.000217955    0.000132333    0.000255765
     29        1           0.000169399    0.000203878    0.000267063
     30        6           0.001406333   -0.000026605    0.000977378
     31        1          -0.000131875   -0.000402323   -0.000034875
     32        1          -0.000152029    0.000117996    0.000045835
 -------------------------------------------------------------------
 Cartesian Forces:  Max     0.002018885 RMS     0.000614742
 FormGI is forming the generalized inverse of G from B-inverse, IUseBI=4.

 GradGradGradGradGradGradGradGradGradGradGradGradGradGradGradGradGradGrad
 Berny optimization.
 Internal  Forces:  Max     0.004142558 RMS     0.000518643
 Search for a saddle point.
 Step number   1 out of a maximum of  175
 All quantities printed in internal units (Hartrees-Bohrs-Radians)
 Swapping is turned off.
 Second derivative matrix not updated -- analytic derivatives used.
 ITU=  0
     Eigenvalues ---   -0.27255   0.00021   0.00071   0.00523   0.00734
     Eigenvalues ---    0.00865   0.00938   0.01130   0.01194   0.01318
     Eigenvalues ---    0.01432   0.01936   0.02124   0.02225   0.02406
     Eigenvalues ---    0.02569   0.02775   0.02802   0.02970   0.02996
     Eigenvalues ---    0.03300   0.03381   0.03412   0.03453   0.03487
     Eigenvalues ---    0.03646   0.03918   0.05549   0.07554   0.08332
     Eigenvalues ---    0.08933   0.09309   0.09448   0.10132   0.10418
     Eigenvalues ---    0.10692   0.10884   0.10895   0.11033   0.11177
     Eigenvalues ---    0.11218   0.11347   0.11621   0.11823   0.12077
     Eigenvalues ---    0.12536   0.13329   0.14087   0.15159   0.15519
     Eigenvalues ---    0.15641   0.16228   0.16524   0.17536   0.21288
     Eigenvalues ---    0.23602   0.24309   0.25321   0.25686   0.25744
     Eigenvalues ---    0.25785   0.25873   0.25905   0.26017   0.26146
     Eigenvalues ---    0.26510   0.26816   0.27183   0.27355   0.27506
     Eigenvalues ---    0.27865   0.28370   0.29300   0.29998   0.36511
     Eigenvalues ---    0.38058   0.39353   0.42567   0.43380   0.47253
     Eigenvalues ---    0.48684   0.50716   0.52596   0.55320   0.56123
     Eigenvalues ---    0.64525   0.67124   0.69941   0.75442   1.20538
 Eigenvectors required to have negative eigenvalues:
                          R20       A31       R25       R21       R13
   1                    0.35971  -0.34678   0.31681  -0.24375   0.23308
                          D75       R14       D76       D38       D77
   1                   -0.22964  -0.21582   0.20476   0.16543  -0.16232
 RFO step:  Lambda0=3.900586226D-05 Lambda=-4.27262601D-04.
 Linear search not attempted -- option 19 set.
 Iteration  1 RMS(Cart)=  0.02278158 RMS(Int)=  0.00031256
 Iteration  2 RMS(Cart)=  0.00092609 RMS(Int)=  0.00008922
 Iteration  3 RMS(Cart)=  0.00000056 RMS(Int)=  0.00008922
 Variable       Old X    -DE/DX   Delta X   Delta X   Delta X     New X
                                 (Linear)    (Quad)   (Total)
    R1        2.61778  -0.00002   0.00000  -0.00058  -0.00059   2.61720
    R2        2.66673   0.00009   0.00000   0.00042   0.00041   2.66715
    R3        2.06153   0.00046   0.00000   0.00153   0.00153   2.06305
    R4        2.67598   0.00015   0.00000   0.00092   0.00092   2.67690
    R5        2.06014   0.00000   0.00000  -0.00018  -0.00018   2.05996
    R6        2.67218   0.00012   0.00000   0.00016   0.00012   2.67231
    R7        2.74021  -0.00044   0.00000  -0.00256  -0.00259   2.73762
    R8        2.67246   0.00043   0.00000   0.00044   0.00044   2.67291
    R9        2.77951  -0.00024   0.00000   0.00240   0.00240   2.78190
   R10        2.61463  -0.00015   0.00000  -0.00053  -0.00053   2.61410
   R11        2.06580   0.00007   0.00000   0.00012   0.00012   2.06593
   R12        2.05823   0.00047   0.00000   0.00149   0.00149   2.05972
   R13        2.70012  -0.00080   0.00000  -0.00373  -0.00369   2.69643
   R14        2.43043   0.00175   0.00000  -0.00818  -0.00818   2.42226
   R15        2.56403   0.00043   0.00000   0.00248   0.00248   2.56651
   R16        3.26770   0.00047   0.00000   0.00216   0.00216   3.26986
   R17        2.07084   0.00015   0.00000  -0.00284  -0.00284   2.06800
   R18        2.73397  -0.00070   0.00000  -0.00796  -0.00792   2.72606
   R19        2.06362   0.00049   0.00000   0.00181   0.00181   2.06543
   R20        3.47522   0.00248   0.00000   0.11570   0.11570   3.59092
   R21        2.68176   0.00088   0.00000  -0.00673  -0.00673   2.67503
   R22        2.83661  -0.00006   0.00000  -0.00825  -0.00825   2.82836
   R23        2.84099  -0.00051   0.00000  -0.00982  -0.00982   2.83117
   R24        2.05998   0.00020   0.00000   0.00279   0.00279   2.06277
   R25        2.62846  -0.00061   0.00000  -0.00461  -0.00461   2.62384
   R26        2.07491   0.00005   0.00000   0.00022   0.00022   2.07513
   R27        2.08400  -0.00019   0.00000  -0.00065  -0.00065   2.08334
   R28        2.07502   0.00039   0.00000   0.00468   0.00468   2.07970
   R29        2.07657   0.00000   0.00000   0.00060   0.00060   2.07717
   R30        2.07853   0.00033   0.00000   0.00385   0.00385   2.08238
   R31        2.07708   0.00010   0.00000   0.00139   0.00139   2.07847
   R32        2.05820   0.00042   0.00000   0.00006   0.00006   2.05826
   R33        2.05962   0.00017   0.00000  -0.00086  -0.00086   2.05875
    A1        2.10555  -0.00003   0.00000  -0.00034  -0.00034   2.10521
    A2        2.09620   0.00005   0.00000   0.00068   0.00068   2.09689
    A3        2.08143  -0.00002   0.00000  -0.00034  -0.00034   2.08109
    A4        2.09789   0.00007   0.00000   0.00041   0.00041   2.09829
    A5        2.08635  -0.00027   0.00000  -0.00159  -0.00159   2.08476
    A6        2.09895   0.00020   0.00000   0.00118   0.00119   2.10013
    A7        2.07905   0.00001   0.00000  -0.00002   0.00000   2.07905
    A8        2.14843   0.00013   0.00000   0.00021   0.00023   2.14867
    A9        2.05568  -0.00014   0.00000  -0.00018  -0.00022   2.05546
   A10        2.09092  -0.00016   0.00000  -0.00076  -0.00077   2.09016
   A11        2.09569   0.00001   0.00000   0.00054   0.00055   2.09624
   A12        2.09643   0.00015   0.00000   0.00030   0.00029   2.09672
   A13        2.10089   0.00007   0.00000   0.00080   0.00080   2.10168
   A14        2.06612   0.00024   0.00000   0.00166   0.00166   2.06778
   A15        2.11618  -0.00031   0.00000  -0.00247  -0.00247   2.11371
   A16        2.09200   0.00005   0.00000  -0.00005  -0.00005   2.09195
   A17        2.08632  -0.00004   0.00000  -0.00031  -0.00032   2.08600
   A18        2.10486  -0.00001   0.00000   0.00037   0.00037   2.10524
   A19        2.08736   0.00005   0.00000  -0.00388  -0.00379   2.08357
   A20        2.08548  -0.00058   0.00000   0.00370   0.00365   2.08913
   A21        2.10352   0.00058   0.00000   0.00083   0.00078   2.10430
   A22        2.14747  -0.00007   0.00000  -0.00032  -0.00031   2.14716
   A23        2.05969   0.00005   0.00000   0.00087   0.00086   2.06055
   A24        2.07593   0.00003   0.00000  -0.00047  -0.00048   2.07545
   A25        2.05965   0.00039   0.00000   0.00837   0.00800   2.06765
   A26        2.07110   0.00021   0.00000   0.00586   0.00570   2.07680
   A27        2.03443  -0.00044   0.00000   0.00638   0.00599   2.04042
   A28        2.10500  -0.00004   0.00000  -0.00147  -0.00138   2.10362
   A29        2.12581   0.00026   0.00000   0.00055   0.00051   2.12632
   A30        2.05211  -0.00022   0.00000   0.00086   0.00082   2.05293
   A31        1.98198   0.00414   0.00000  -0.01494  -0.01494   1.96703
   A32        1.72151   0.00091   0.00000  -0.02962  -0.02952   1.69199
   A33        1.68606  -0.00050   0.00000  -0.00684  -0.00678   1.67928
   A34        1.71538  -0.00013   0.00000  -0.01020  -0.01010   1.70529
   A35        2.07478  -0.00025   0.00000   0.00606   0.00559   2.08036
   A36        2.10711  -0.00013   0.00000   0.00962   0.00916   2.11627
   A37        2.00479   0.00023   0.00000   0.00621   0.00584   2.01063
   A38        2.04981  -0.00038   0.00000   0.00018   0.00010   2.04992
   A39        2.13345   0.00091   0.00000   0.00669   0.00661   2.14006
   A40        2.06779  -0.00037   0.00000  -0.00139  -0.00147   2.06632
   A41        1.97026   0.00046   0.00000   0.00717   0.00713   1.97739
   A42        1.93078   0.00058   0.00000   0.00669   0.00665   1.93742
   A43        1.95359  -0.00029   0.00000  -0.00390  -0.00389   1.94971
   A44        1.85251  -0.00010   0.00000   0.00559   0.00550   1.85801
   A45        1.87873  -0.00029   0.00000  -0.00670  -0.00669   1.87204
   A46        1.87238  -0.00041   0.00000  -0.00947  -0.00946   1.86292
   A47        1.97534   0.00027   0.00000   0.00644   0.00642   1.98176
   A48        1.92783  -0.00007   0.00000  -0.00122  -0.00122   1.92662
   A49        1.95737   0.00030   0.00000   0.00481   0.00479   1.96216
   A50        1.86642  -0.00016   0.00000  -0.00431  -0.00431   1.86211
   A51        1.85835  -0.00012   0.00000   0.00070   0.00066   1.85901
   A52        1.87284  -0.00026   0.00000  -0.00746  -0.00745   1.86539
   A53        2.09013   0.00007   0.00000   0.00619   0.00592   2.09605
   A54        2.11949   0.00003   0.00000   0.00565   0.00538   2.12487
   A55        1.96807  -0.00003   0.00000   0.00670   0.00641   1.97447
    D1        0.00333  -0.00001   0.00000  -0.00087  -0.00087   0.00246
    D2       -3.13536  -0.00006   0.00000  -0.00277  -0.00277  -3.13812
    D3       -3.14107   0.00005   0.00000   0.00076   0.00076  -3.14031
    D4        0.00344  -0.00001   0.00000  -0.00114  -0.00114   0.00230
    D5       -0.00175   0.00001   0.00000   0.00117   0.00117  -0.00059
    D6        3.13743   0.00009   0.00000   0.00383   0.00383   3.14126
    D7       -3.14057  -0.00005   0.00000  -0.00045  -0.00045  -3.14102
    D8       -0.00139   0.00004   0.00000   0.00221   0.00221   0.00083
    D9        0.00319  -0.00002   0.00000  -0.00194  -0.00194   0.00125
   D10       -3.13117  -0.00006   0.00000  -0.00391  -0.00391  -3.13508
   D11       -3.14133   0.00004   0.00000  -0.00003  -0.00003  -3.14136
   D12        0.00749   0.00000   0.00000  -0.00200  -0.00200   0.00549
   D13       -0.01120   0.00004   0.00000   0.00444   0.00444  -0.00676
   D14       -3.13468  -0.00008   0.00000  -0.00081  -0.00081  -3.13550
   D15        3.12354   0.00008   0.00000   0.00631   0.00631   3.12985
   D16        0.00006  -0.00004   0.00000   0.00106   0.00105   0.00111
   D17        3.11572   0.00002   0.00000   0.00003   0.00002   3.11575
   D18       -0.01141  -0.00011   0.00000  -0.00665  -0.00665  -0.01805
   D19       -0.01873  -0.00002   0.00000  -0.00192  -0.00192  -0.02065
   D20        3.13733  -0.00015   0.00000  -0.00859  -0.00859   3.12874
   D21        0.01290  -0.00004   0.00000  -0.00419  -0.00419   0.00871
   D22       -3.12959  -0.00017   0.00000  -0.00847  -0.00847  -3.13806
   D23        3.13638   0.00008   0.00000   0.00107   0.00107   3.13744
   D24       -0.00612  -0.00005   0.00000  -0.00321  -0.00321  -0.00933
   D25       -0.03439   0.00018   0.00000   0.00392   0.00392  -0.03047
   D26       -3.05139  -0.00031   0.00000  -0.00208  -0.00207  -3.05346
   D27        3.12537   0.00006   0.00000  -0.00134  -0.00135   3.12402
   D28        0.10837  -0.00042   0.00000  -0.00734  -0.00734   0.10103
   D29       -0.00639   0.00001   0.00000   0.00137   0.00137  -0.00502
   D30        3.13763  -0.00007   0.00000  -0.00132  -0.00132   3.13632
   D31        3.13613   0.00015   0.00000   0.00577   0.00577  -3.14129
   D32       -0.00303   0.00007   0.00000   0.00308   0.00308   0.00005
   D33        2.70583  -0.00004   0.00000   0.03625   0.03632   2.74215
   D34        0.08372  -0.00023   0.00000  -0.00748  -0.00752   0.07620
   D35       -0.56166   0.00037   0.00000   0.04251   0.04256  -0.51910
   D36        3.09941   0.00018   0.00000  -0.00122  -0.00127   3.09814
   D37        1.87635  -0.00084   0.00000  -0.03049  -0.03048   1.84587
   D38       -1.13948  -0.00129   0.00000  -0.03620  -0.03621  -1.17569
   D39        0.07083  -0.00006   0.00000  -0.00217  -0.00216   0.06867
   D40       -3.09653  -0.00013   0.00000  -0.00453  -0.00452  -3.10105
   D41       -3.08536   0.00007   0.00000   0.00457   0.00457  -3.08078
   D42        0.03047   0.00000   0.00000   0.00221   0.00222   0.03269
   D43       -0.10264   0.00018   0.00000   0.00666   0.00670  -0.09594
   D44        3.06366   0.00024   0.00000   0.00893   0.00897   3.07262
   D45       -2.73213  -0.00025   0.00000  -0.03703  -0.03705  -2.76918
   D46        0.43417  -0.00019   0.00000  -0.03477  -0.03479   0.39938
   D47        0.84190   0.00017   0.00000   0.03013   0.03018   0.87208
   D48        2.94707  -0.00001   0.00000   0.02808   0.02818   2.97524
   D49       -1.30456   0.00009   0.00000   0.03092   0.03077  -1.27379
   D50        1.75336  -0.00026   0.00000  -0.01622  -0.01619   1.73718
   D51       -1.11428  -0.00088   0.00000  -0.03882  -0.03881  -1.15309
   D52       -0.03576  -0.00014   0.00000   0.00787   0.00792  -0.02784
   D53       -2.90340  -0.00076   0.00000  -0.01474  -0.01470  -2.91811
   D54       -2.69619   0.00014   0.00000  -0.04491  -0.04497  -2.74116
   D55        0.71935  -0.00048   0.00000  -0.06751  -0.06759   0.65176
   D56       -1.44111  -0.00061   0.00000   0.00774   0.00772  -1.43340
   D57        0.63185  -0.00003   0.00000   0.02419   0.02422   0.65606
   D58        2.71897  -0.00035   0.00000   0.01416   0.01417   2.73314
   D59        0.36840   0.00009   0.00000  -0.02945  -0.02947   0.33893
   D60        2.44136   0.00067   0.00000  -0.01300  -0.01297   2.42839
   D61       -1.75470   0.00035   0.00000  -0.02302  -0.02302  -1.77771
   D62        3.05609  -0.00026   0.00000   0.02125   0.02122   3.07731
   D63       -1.15414   0.00031   0.00000   0.03770   0.03772  -1.11642
   D64        0.93299  -0.00001   0.00000   0.02768   0.02767   0.96066
   D65        1.12639   0.00064   0.00000   0.00196   0.00196   1.12835
   D66       -3.06475   0.00056   0.00000  -0.00007  -0.00008  -3.06483
   D67       -0.97655   0.00038   0.00000  -0.00716  -0.00718  -0.98373
   D68       -0.71060  -0.00033   0.00000   0.04133   0.04139  -0.66921
   D69        1.38144  -0.00041   0.00000   0.03929   0.03935   1.42079
   D70       -2.81354  -0.00059   0.00000   0.03220   0.03224  -2.78129
   D71        2.89404   0.00006   0.00000  -0.00937  -0.00940   2.88464
   D72       -1.29711  -0.00001   0.00000  -0.01140  -0.01144  -1.30855
   D73        0.79110  -0.00020   0.00000  -0.01849  -0.01855   0.77255
   D74        3.10678   0.00025   0.00000   0.00677   0.00671   3.11349
   D75       -0.54673   0.00040   0.00000   0.05056   0.05061  -0.49611
   D76        0.24183  -0.00038   0.00000  -0.01631  -0.01636   0.22547
   D77        2.87151  -0.00023   0.00000   0.02748   0.02754   2.89905
         Item               Value     Threshold  Converged?
 Maximum Force            0.004143     0.000450     NO 
 RMS     Force            0.000519     0.000300     NO 
 Maximum Displacement     0.093834     0.001800     NO 
 RMS     Displacement     0.023033     0.001200     NO 
 Predicted change in Energy=-2.046771D-04
 GradGradGradGradGradGradGradGradGradGradGradGradGradGradGradGradGradGrad

                          Input orientation:                          
 ---------------------------------------------------------------------
 Center     Atomic      Atomic             Coordinates (Angstroms)
 Number     Number       Type             X           Y           Z
 ---------------------------------------------------------------------
      1          6           0       -2.410655    2.643223    0.288534
      2          6           0       -2.682599    1.285360    0.269285
      3          6           0       -1.673013    0.361051   -0.095431
      4          6           0       -0.388453    0.844046   -0.436564
      5          6           0       -0.133489    2.235179   -0.416977
      6          6           0       -1.129578    3.124771   -0.056412
      7          1           0       -3.189374    3.354329    0.570985
      8          1           0       -3.679647    0.934644    0.536082
      9          1           0        0.866012    2.585767   -0.687647
     10          1           0       -0.935337    4.197075   -0.035450
     11          6           0        0.674653   -0.096719   -0.826314
     12          6           0       -1.890811   -1.070335   -0.144248
     13          6           0        0.406309   -1.498132   -0.819657
     14          1           0        1.023637   -2.150418   -1.444962
     15          6           0       -0.930066   -1.952726   -0.522262
     16          1           0       -1.126667   -3.025870   -0.587892
     17          8           0        1.861158    0.338783   -1.039763
     18         17           0       -3.454206   -1.671080    0.290439
     19          6           0        3.065887   -0.097021    0.363656
     20          6           0        2.755305   -1.476319    0.433678
     21          1           0        3.433253   -2.170783   -0.065950
     22          6           0        4.308591    0.336256   -0.349146
     23          1           0        4.698666   -0.421516   -1.041586
     24          1           0        4.124329    1.242450   -0.949372
     25          1           0        5.117450    0.581892    0.355533
     26          6           0        2.545141    0.869713    1.382881
     27          1           0        1.514895    0.658334    1.702468
     28          1           0        3.169597    0.844140    2.290455
     29          1           0        2.552879    1.907645    1.019057
     30          6           0        1.512691   -1.943969    0.839987
     31          1           0        1.309578   -3.013958    0.853640
     32          1           0        0.885874   -1.380560    1.530322
 ---------------------------------------------------------------------
                    Distance matrix (angstroms):
                    1          2          3          4          5
     1  C    0.000000
     2  C    1.384960   0.000000
     3  C    2.428961   1.416555   0.000000
     4  C    2.802161   2.440509   1.414125   0.000000
     5  C    2.418622   2.805543   2.446606   1.414441   0.000000
     6  C    1.411394   2.429276   2.816911   2.428063   1.383320
     7  H    1.091720   2.151389   3.420989   3.893820   3.401029
     8  H    2.142629   1.090085   2.180458   3.433104   3.895503
     9  H    3.419470   3.898643   3.427350   2.161092   1.093241
    10  H    2.167022   3.409380   3.906768   3.420932   2.153499
    11  C    4.274259   3.792310   2.501056   1.472120   2.501679
    12  C    3.774659   2.519373   1.448684   2.450996   3.753530
[...]
     29          1           0        2.548562    1.904823    1.031549
     30          6           0        1.507552   -1.944046    0.842831
     31          1           0        1.301225   -3.013444    0.851875
     32          1           0        0.876879   -1.379791    1.528943
 ---------------------------------------------------------------------
 Rotational constants (GHZ):      0.6892755      0.3369491      0.2489132

 **********************************************************************

            Population analysis using the SCF density.

 **********************************************************************

 Orbital symmetries:
       Occupied  (A) (A) (A) (A) (A) (A) (A) (A) (A) (A) (A) (A)
                 (A) (A) (A) (A) (A) (A) (A) (A) (A) (A) (A) (A)
                 (A) (A) (A) (A) (A) (A) (A) (A) (A) (A) (A) (A)
                 (A) (A) (A) (A) (A) (A) (A) (A)
       Virtual   (A) (A) (A) (A) (A) (A) (A) (A) (A) (A) (A) (A)
                 (A) (A) (A) (A) (A) (A) (A) (A) (A) (A) (A) (A)
                 (A) (A) (A) (A) (A) (A) (A) (A) (A) (A) (A) (A)
                 (A) (A) (A) (A) (A) (A) (A) (A)
 The electronic state is 1-A.
 Alpha  occ. eigenvalues --   -1.13407  -1.11032  -1.07700  -1.06539  -1.00352
 Alpha  occ. eigenvalues --   -0.98041  -0.96307  -0.94695  -0.91333  -0.89313
 Alpha  occ. eigenvalues --   -0.82181  -0.80987  -0.80093  -0.75674  -0.68912
 Alpha  occ. eigenvalues --   -0.66000  -0.65167  -0.62834  -0.60261  -0.59876
 Alpha  occ. eigenvalues --   -0.57250  -0.56890  -0.56323  -0.54392  -0.54161
 Alpha  occ. eigenvalues --   -0.53007  -0.52045  -0.50617  -0.50175  -0.49462
 Alpha  occ. eigenvalues --   -0.48889  -0.48467  -0.47269  -0.46589  -0.46461
 Alpha  occ. eigenvalues --   -0.45673  -0.44658  -0.42081  -0.41318  -0.39429
 Alpha  occ. eigenvalues --   -0.38541  -0.37528  -0.34478  -0.31546
 Alpha virt. eigenvalues --   -0.03190  -0.02340   0.00335   0.02184   0.02620
 Alpha virt. eigenvalues --    0.03795   0.07260   0.09497   0.12169   0.12806
 Alpha virt. eigenvalues --    0.13760   0.13919   0.14325   0.14992   0.15377
 Alpha virt. eigenvalues --    0.15978   0.16069   0.16701   0.17052   0.17600
 Alpha virt. eigenvalues --    0.18288   0.18717   0.18890   0.19423   0.19687
 Alpha virt. eigenvalues --    0.19960   0.20156   0.20316   0.20558   0.20793
 Alpha virt. eigenvalues --    0.20962   0.21054   0.21687   0.22027   0.22106
 Alpha virt. eigenvalues --    0.22246   0.22876   0.23934   0.24286   3.24349
 Alpha virt. eigenvalues --    3.24428   3.24587   3.25479   3.25529
          Condensed to atoms (all electrons):
               1          2          3          4          5          6
     1  C    4.083574   0.000000   0.000000   0.000000   0.000000   0.000000
     2  C    0.000000   4.217419   0.000000   0.000000   0.000000   0.000000
     3  C    0.000000   0.000000   3.912825   0.000000   0.000000   0.000000
     4  C    0.000000   0.000000   0.000000   4.187625   0.000000   0.000000
     5  C    0.000000   0.000000   0.000000   0.000000   4.071739   0.000000
     6  C    0.000000   0.000000   0.000000   0.000000   0.000000   4.200041
     7  H    0.000000   0.000000   0.000000   0.000000   0.000000   0.000000
     8  H    0.000000   0.000000   0.000000   0.000000   0.000000   0.000000
     9  H    0.000000   0.000000   0.000000   0.000000   0.000000   0.000000
    10  H    0.000000   0.000000   0.000000   0.000000   0.000000   0.000000
    11  C    0.000000   0.000000   0.000000   0.000000   0.000000   0.000000
    12  C    0.000000   0.000000   0.000000   0.000000   0.000000   0.000000
    13  C    0.000000   0.000000   0.000000   0.000000   0.000000   0.000000
    14  H    0.000000   0.000000   0.000000   0.000000   0.000000   0.000000
    15  C    0.000000   0.000000   0.000000   0.000000   0.000000   0.000000
    16  H    0.000000   0.000000   0.000000   0.000000   0.000000   0.000000
    17  O    0.000000   0.000000   0.000000   0.000000   0.000000   0.000000
    18  Cl   0.000000   0.000000   0.000000   0.000000   0.000000   0.000000
    19  C    0.000000   0.000000   0.000000   0.000000   0.000000   0.000000
    20  C    0.000000   0.000000   0.000000   0.000000   0.000000   0.000000
    21  H    0.000000   0.000000   0.000000   0.000000   0.000000   0.000000
    22  C    0.000000   0.000000   0.000000   0.000000   0.000000   0.000000
    23  H    0.000000   0.000000   0.000000   0.000000   0.000000   0.000000
    24  H    0.000000   0.000000   0.000000   0.000000   0.000000   0.000000
    25  H    0.000000   0.000000   0.000000   0.000000   0.000000   0.000000
    26  C    0.000000   0.000000   0.000000   0.000000   0.000000   0.000000
    27  H    0.000000   0.000000   0.000000   0.000000   0.000000   0.000000
    28  H    0.000000   0.000000   0.000000   0.000000   0.000000   0.000000
    29  H    0.000000   0.000000   0.000000   0.000000   0.000000   0.000000
    30  C    0.000000   0.000000   0.000000   0.000000   0.000000   0.000000
    31  H    0.000000   0.000000   0.000000   0.000000   0.000000   0.000000
    32  H    0.000000   0.000000   0.000000   0.000000   0.000000   0.000000
               7          8          9         10         11         12
     1  C    0.000000   0.000000   0.000000   0.000000   0.000000   0.000000
     2  C    0.000000   0.000000   0.000000   0.000000   0.000000   0.000000
     3  C    0.000000   0.000000   0.000000   0.000000   0.000000   0.000000
     4  C    0.000000   0.000000   0.000000   0.000000   0.000000   0.000000
     5  C    0.000000   0.000000   0.000000   0.000000   0.000000   0.000000
     6  C    0.000000   0.000000   0.000000   0.000000   0.000000   0.000000
     7  H    0.844760   0.000000   0.000000   0.000000   0.000000   0.000000
     8  H    0.000000   0.828932   0.000000   0.000000   0.000000   0.000000
     9  H    0.000000   0.000000   0.835798   0.000000   0.000000   0.000000
    10  H    0.000000   0.000000   0.000000   0.835877   0.000000   0.000000
    11  C    0.000000   0.000000   0.000000   0.000000   3.550535   0.000000
    12  C    0.000000   0.000000   0.000000   0.000000   0.000000   4.092671
    13  C    0.000000   0.000000   0.000000   0.000000   0.000000   0.000000
    14  H    0.000000   0.000000   0.000000   0.000000   0.000000   0.000000
    15  C    0.000000   0.000000   0.000000   0.000000   0.000000   0.000000
    16  H    0.000000   0.000000   0.000000   0.000000   0.000000   0.000000
    17  O    0.000000   0.000000   0.000000   0.000000   0.000000   0.000000
    18  Cl   0.000000   0.000000   0.000000   0.000000   0.000000   0.000000
    19  C    0.000000   0.000000   0.000000   0.000000   0.000000   0.000000
    20  C    0.000000   0.000000   0.000000   0.000000   0.000000   0.000000
    21  H    0.000000   0.000000   0.000000   0.000000   0.000000   0.000000
    22  C    0.000000   0.000000   0.000000   0.000000   0.000000   0.000000
    23  H    0.000000   0.000000   0.000000   0.000000   0.000000   0.000000
    24  H    0.000000   0.000000   0.000000   0.000000   0.000000   0.000000
    25  H    0.000000   0.000000   0.000000   0.000000   0.000000   0.000000
    26  C    0.000000   0.000000   0.000000   0.000000   0.000000   0.000000
    27  H    0.000000   0.000000   0.000000   0.000000   0.000000   0.000000
    28  H    0.000000   0.000000   0.000000   0.000000   0.000000   0.000000
    29  H    0.000000   0.000000   0.000000   0.000000   0.000000   0.000000
    30  C    0.000000   0.000000   0.000000   0.000000   0.000000   0.000000
    31  H    0.000000   0.000000   0.000000   0.000000   0.000000   0.000000
    32  H    0.000000   0.000000   0.000000   0.000000   0.000000   0.000000
              13         14         15         16         17         18
     1  C    0.000000   0.000000   0.000000   0.000000   0.000000   0.000000
     2  C    0.000000   0.000000   0.000000   0.000000   0.000000   0.000000
     3  C    0.000000   0.000000   0.000000   0.000000   0.000000   0.000000
     4  C    0.000000   0.000000   0.000000   0.000000   0.000000   0.000000
     5  C    0.000000   0.000000   0.000000   0.000000   0.000000   0.000000
     6  C    0.000000   0.000000   0.000000   0.000000   0.000000   0.000000
     7  H    0.000000   0.000000   0.000000   0.000000   0.000000   0.000000
     8  H    0.000000   0.000000   0.000000   0.000000   0.000000   0.000000
     9  H    0.000000   0.000000   0.000000   0.000000   0.000000   0.000000
    10  H    0.000000   0.000000   0.000000   0.000000   0.000000   0.000000
    11  C    0.000000   0.000000   0.000000   0.000000   0.000000   0.000000
    12  C    0.000000   0.000000   0.000000   0.000000   0.000000   0.000000
    13  C    4.391169   0.000000   0.000000   0.000000   0.000000   0.000000
    14  H    0.000000   0.807840   0.000000   0.000000   0.000000   0.000000
    15  C    0.000000   0.000000   4.064493   0.000000   0.000000   0.000000
    16  H    0.000000   0.000000   0.000000   0.832652   0.000000   0.000000
    17  O    0.000000   0.000000   0.000000   0.000000   6.611520   0.000000
    18  Cl   0.000000   0.000000   0.000000   0.000000   0.000000   7.107723
    19  C    0.000000   0.000000   0.000000   0.000000   0.000000   0.000000
    20  C    0.000000   0.000000   0.000000   0.000000   0.000000   0.000000
    21  H    0.000000   0.000000   0.000000   0.000000   0.000000   0.000000
    22  C    0.000000   0.000000   0.000000   0.000000   0.000000   0.000000
    23  H    0.000000   0.000000   0.000000   0.000000   0.000000   0.000000
    24  H    0.000000   0.000000   0.000000   0.000000   0.000000   0.000000
    25  H    0.000000   0.000000   0.000000   0.000000   0.000000   0.000000
    26  C    0.000000   0.000000   0.000000   0.000000   0.000000   0.000000
    27  H    0.000000   0.000000   0.000000   0.000000   0.000000   0.000000
    28  H    0.000000   0.000000   0.000000   0.000000   0.000000   0.000000
    29  H    0.000000   0.000000   0.000000   0.000000   0.000000   0.000000
    30  C    0.000000   0.000000   0.000000   0.000000   0.000000   0.000000
    31  H    0.000000   0.000000   0.000000   0.000000   0.000000   0.000000
    32  H    0.000000   0.000000   0.000000   0.000000   0.000000   0.000000
              19         20         21         22         23         24
     1  C    0.000000   0.000000   0.000000   0.000000   0.000000   0.000000
     2  C    0.000000   0.000000   0.000000   0.000000   0.000000   0.000000
     3  C    0.000000   0.000000   0.000000   0.000000   0.000000   0.000000
     4  C    0.000000   0.000000   0.000000   0.000000   0.000000   0.000000
     5  C    0.000000   0.000000   0.000000   0.000000   0.000000   0.000000
     6  C    0.000000   0.000000   0.000000   0.000000   0.000000   0.000000
     7  H    0.000000   0.000000   0.000000   0.000000   0.000000   0.000000
     8  H    0.000000   0.000000   0.000000   0.000000   0.000000   0.000000
     9  H    0.000000   0.000000   0.000000   0.000000   0.000000   0.000000
    10  H    0.000000   0.000000   0.000000   0.000000   0.000000   0.000000
    11  C    0.000000   0.000000   0.000000   0.000000   0.000000   0.000000
    12  C    0.000000   0.000000   0.000000   0.000000   0.000000   0.000000
    13  C    0.000000   0.000000   0.000000   0.000000   0.000000   0.000000
    14  H    0.000000   0.000000   0.000000   0.000000   0.000000   0.000000
    15  C    0.000000   0.000000   0.000000   0.000000   0.000000   0.000000
    16  H    0.000000   0.000000   0.000000   0.000000   0.000000   0.000000
    17  O    0.000000   0.000000   0.000000   0.000000   0.000000   0.000000
    18  Cl   0.000000   0.000000   0.000000   0.000000   0.000000   0.000000
    19  C    3.474905   0.000000   0.000000   0.000000   0.000000   0.000000
    20  C    0.000000   4.467665   0.000000   0.000000   0.000000   0.000000
    21  H    0.000000   0.000000   0.819117   0.000000   0.000000   0.000000
    22  C    0.000000   0.000000   0.000000   4.576434   0.000000   0.000000
    23  H    0.000000   0.000000   0.000000   0.000000   0.817989   0.000000
    24  H    0.000000   0.000000   0.000000   0.000000   0.000000   0.804068
    25  H    0.000000   0.000000   0.000000   0.000000   0.000000   0.000000
    26  C    0.000000   0.000000   0.000000   0.000000   0.000000   0.000000
    27  H    0.000000   0.000000   0.000000   0.000000   0.000000   0.000000
    28  H    0.000000   0.000000   0.000000   0.000000   0.000000   0.000000
    29  H    0.000000   0.000000   0.000000   0.000000   0.000000   0.000000
    30  C    0.000000   0.000000   0.000000   0.000000   0.000000   0.000000
    31  H    0.000000   0.000000   0.000000   0.000000   0.000000   0.000000
    32  H    0.000000   0.000000   0.000000   0.000000   0.000000   0.000000
              25         26         27         28         29         30
     1  C    0.000000   0.000000   0.000000   0.000000   0.000000   0.000000
     2  C    0.000000   0.000000   0.000000   0.000000   0.000000   0.000000
     3  C    0.000000   0.000000   0.000000   0.000000   0.000000   0.000000
     4  C    0.000000   0.000000   0.000000   0.000000   0.000000   0.000000
     5  C    0.000000   0.000000   0.000000   0.000000   0.000000   0.000000
     6  C    0.000000   0.000000   0.000000   0.000000   0.000000   0.000000
     7  H    0.000000   0.000000   0.000000   0.000000   0.000000   0.000000
     8  H    0.000000   0.000000   0.000000   0.000000   0.000000   0.000000
     9  H    0.000000   0.000000   0.000000   0.000000   0.000000   0.000000
    10  H    0.000000   0.000000   0.000000   0.000000   0.000000   0.000000
    11  C    0.000000   0.000000   0.000000   0.000000   0.000000   0.000000
    12  C    0.000000   0.000000   0.000000   0.000000   0.000000   0.000000
    13  C    0.000000   0.000000   0.000000   0.000000   0.000000   0.000000
    14  H    0.000000   0.000000   0.000000   0.000000   0.000000   0.000000
    15  C    0.000000   0.000000   0.000000   0.000000   0.000000   0.000000
    16  H    0.000000   0.000000   0.000000   0.000000   0.000000   0.000000
    17  O    0.000000   0.000000   0.000000   0.000000   0.000000   0.000000
    18  Cl   0.000000   0.000000   0.000000   0.000000   0.000000   0.000000
    19  C    0.000000   0.000000   0.000000   0.000000   0.000000   0.000000
    20  C    0.000000   0.000000   0.000000   0.000000   0.000000   0.000000
    21  H    0.000000   0.000000   0.000000   0.000000   0.000000   0.000000
    22  C    0.000000   0.000000   0.000000   0.000000   0.000000   0.000000
    23  H    0.000000   0.000000   0.000000   0.000000   0.000000   0.000000
    24  H    0.000000   0.000000   0.000000   0.000000   0.000000   0.000000
    25  H    0.809863   0.000000   0.000000   0.000000   0.000000   0.000000
    26  C    0.000000   4.580724   0.000000   0.000000   0.000000   0.000000
    27  H    0.000000   0.000000   0.814378   0.000000   0.000000   0.000000
    28  H    0.000000   0.000000   0.000000   0.809096   0.000000   0.000000
    29  H    0.000000   0.000000   0.000000   0.000000   0.809433   0.000000
    30  C    0.000000   0.000000   0.000000   0.000000   0.000000   4.022851
    31  H    0.000000   0.000000   0.000000   0.000000   0.000000   0.000000
    32  H    0.000000   0.000000   0.000000   0.000000   0.000000   0.000000
              31         32
     1  C    0.000000   0.000000
     2  C    0.000000   0.000000
     3  C    0.000000   0.000000
     4  C    0.000000   0.000000
     5  C    0.000000   0.000000
     6  C    0.000000   0.000000
     7  H    0.000000   0.000000
     8  H    0.000000   0.000000
     9  H    0.000000   0.000000
    10  H    0.000000   0.000000
    11  C    0.000000   0.000000
    12  C    0.000000   0.000000
    13  C    0.000000   0.000000
    14  H    0.000000   0.000000
    15  C    0.000000   0.000000
    16  H    0.000000   0.000000
    17  O    0.000000   0.000000
    18  Cl   0.000000   0.000000
    19  C    0.000000   0.000000
    20  C    0.000000   0.000000
    21  H    0.000000   0.000000
    22  C    0.000000   0.000000
    23  H    0.000000   0.000000
    24  H    0.000000   0.000000
    25  H    0.000000   0.000000
    26  C    0.000000   0.000000
    27  H    0.000000   0.000000
    28  H    0.000000   0.000000
    29  H    0.000000   0.000000
    30  C    0.000000   0.000000
    31  H    0.856034   0.000000
    32  H    0.000000   0.860251
 Mulliken charges:
               1
     1  C   -0.083574
     2  C   -0.217419
     3  C    0.087175
     4  C   -0.187625
     5  C   -0.071739
     6  C   -0.200041
     7  H    0.155240
     8  H    0.171068
     9  H    0.164202
    10  H    0.164123
    11  C    0.449465
    12  C   -0.092671
    13  C   -0.391169
    14  H    0.192160
    15  C   -0.064493
    16  H    0.167348
    17  O   -0.611520
    18  Cl  -0.107723
    19  C    0.525095
    20  C   -0.467665
    21  H    0.180883
    22  C   -0.576434
    23  H    0.182011
    24  H    0.195932
    25  H    0.190137
    26  C   -0.580724
    27  H    0.185622
    28  H    0.190904
    29  H    0.190567
    30  C   -0.022851
    31  H    0.143966
    32  H    0.139749
 Sum of Mulliken charges =   0.00000
 Mulliken charges with hydrogens summed into heavy atoms:
               1
     1  C    0.071666
     2  C   -0.046350
     3  C    0.087175
     4  C   -0.187625
     5  C    0.092463
     6  C   -0.035917
    11  C    0.449465
    12  C   -0.092671
    13  C   -0.199010
    15  C    0.102856
    17  O   -0.611520
    18  Cl  -0.107723
    19  C    0.525095
    20  C   -0.286783
    22  C   -0.008354
    26  C   -0.013631
    30  C    0.260865
 Charge=              0.0000 electrons
 Dipole moment (field-independent basis, Debye):
    X=              3.1039    Y=              0.5108    Z=              2.8202  Tot=              4.2247
 N-N= 6.574606018750D+02 E-N=-1.202188451209D+03  KE=-5.670392175172D+01
 1\1\GINC-D12S0B3\FTS\RPM6\ZDO\C15H15Cl1O1\CHMKSH\20-Aug-2020\0\\# opt=
 (calcfc,ts,noeigentest) pm6 scrf=(cpcm,solvent=water) geom=connectivit
 y empiricaldispersion=gd3\\Title Card Required\\0,1\C,-2.4120969383,2.
 6427145372,0.2898975995\C,-2.6834554584,1.2848138661,0.2706451301\C,-1
 .6738616542,0.3609183191,-0.0955267817\C,-0.3898922542,0.8446038554,-0
 .4380310149\C,-0.135541455,2.2358846718,-0.4182216571\C,-1.1315619449,
 3.1249511097,-0.0563708645\H,-3.1907757919,3.3534454899,0.5733644918\H
 ,-3.6799774183,0.9335113509,0.5385210795\H,0.8635393951,2.58692097,-0.
 6898213996\H,-0.9378238531,4.197312191,-0.0353401902\C,0.6735335324,-0
 .095510689,-0.8289657483\C,-1.891187066,-1.0703251739,-0.1445150285\C,
 0.4046745539,-1.4967477401,-0.8234648499\H,1.0242148076,-2.1496516513,
 -1.4455528607\C,-0.9303151403,-1.9521607421,-0.5244180506\H,-1.1267084
 308,-3.0253377067,-0.5902297121\O,1.8590257196,0.34095104,-1.043205985
 6\Cl,-3.4535530725,-1.6722602634,0.2923471869\C,3.0697355931,-0.098115
 1627,0.3666543724\C,2.7551304349,-1.47658214,0.4337977906\H,3.43189963
 56,-2.1719398782,-0.066515166\C,4.3120114515,0.3336661975,-0.347036946
 3\H,4.7040139209,-0.4262467553,-1.0361059302\H,4.1268194719,1.23728652
 73,-0.9511714586\H,5.120216179,0.5838373094,0.356977431\C,2.5471642088
 ,0.8697140288,1.3833417351\H,1.5173161645,0.6571558451,1.7036384221\H,
 3.1717343029,0.847886303,2.2910884397\H,2.5529004158,1.9069438384,1.01
 71665935\C,1.5128482838,-1.942801656,0.8414986815\H,1.3070560317,-3.01
 22694758,0.8538047298\H,0.8849253747,-1.3773174163,1.5291199614\\Versi
 on=ES64L-G09RevD.01\State=1-A\HF=0.0147096\RMSD=5.747e-09\RMSF=4.002e-
 06\Dipole=1.2259185,0.2039506,1.1037316\PG=C01 [X(C15H15Cl1O1)]\\@


 This summer one third of the nation will be ill-housed
 ill-nourished and ill-clad. Only they call it a vacation.
 -- Jonas Salk
 Job cpu time:       0 days  0 hours  2 minutes 18.7 seconds.
 File lengths (MBytes):  RWF=    152 Int=      0 D2E=      0 Chk=     10 Scr=      1
 Normal termination of Gaussian 09 at Thu Aug 20 13:31:30 2020.
