 Entering Gaussian System, Link 0=g09
 Input=dmad_cycloaddition_PM6_toluene.com
 Output=dmad_cycloaddition_PM6_toluene.log
 Initial command:
 /apps/applications/gaussian/G09.D01/2/default/g09/l1.exe "/local/725826.1.40core-192G.q/Gau-280322.inp" -scrdir="/local/725826.1.40core-192G.q/"
 Entering Link 1 = /apps/applications/gaussian/G09.D01/2/default/g09/l1.exe PID=    280323.
  
 Copyright (c) 1988,1990,1992,1993,1995,1998,2003,2009,2013,
            Gaussian, Inc.  All Rights Reserved.
  
 This is part of the Gaussian(R) 09 program.  It is based on
 the Gaussian(R) 03 system (copyright 2003, Gaussian, Inc.),
 the Gaussian(R) 98 system (copyright 1998, Gaussian, Inc.),
 the Gaussian(R) 94 system (copyright 1995, Gaussian, Inc.),
 the Gaussian 92(TM) system (copyright 1992, Gaussian, Inc.),
 the Gaussian 90(TM) system (copyright 1990, Gaussian, Inc.),
 the Gaussian 88(TM) system (copyright 1988, Gaussian, Inc.),
 the Gaussian 86(TM) system (copyright 1986, Carnegie Mellon
 University), and the Gaussian 82(TM) system (copyright 1983,
 Carnegie Mellon University). Gaussian is a federally registered
 trademark of Gaussian, Inc.
  
 This software contains proprietary and confidential information,
 including trade secrets, belonging to Gaussian, Inc.
  
 This software is provided under written license and may be
 used, copied, transmitted, or stored only in accord with that
 written license.
  
 The following legend is applicable only to US Government
 contracts under FAR:
  
                    RESTRICTED RIGHTS LEGEND
  
 Use, reproduction and disclosure by the US Government is
 subject to restrictions as set forth in subparagraphs (a)
 and (c) of the Commercial Computer Software - Restricted
 Rights clause in FAR 52.227-19.
  
 Gaussian, Inc.
 340 Quinnipiac St., Bldg. 40, Wallingford CT 06492
  
  
 ---------------------------------------------------------------
 Warning -- This program may not be used in any manner that
 competes with the business of Gaussian, Inc. or will provide
 assistance to any competitor of Gaussian, Inc.  The licensee
 of this program is prohibited from giving any competitor of
 Gaussian, Inc. access to this program.  By using this program,
 the user acknowledges that Gaussian, Inc. is engaged in the
 business of creating and licensing software in the field of
 computational chemistry and represents and warrants to the
 licensee that it is not a competitor of Gaussian, Inc. and that
 it will not use this program in any manner prohibited above.
 ---------------------------------------------------------------
  

 Cite this work as:
 Gaussian 09, Revision D.01,
 M. J. Frisch, G. W. Trucks, H. B. Schlegel, G. E. Scuseria, 
 M. A. Robb, J. R. Cheeseman, G. Scalmani, V. Barone, B. Mennucci, 
 G. A. Petersson, H. Nakatsuji, M. Caricato, X. Li, H. P. Hratchian, 
 A. F. Izmaylov, J. Bloino, G. Zheng, J. L. Sonnenberg, M. Hada, 
 M. Ehara, K. Toyota, R. Fukuda, J. Hasegawa, M. Ishida, T. Nakajima, 
 Y. Honda, O. Kitao, H. Nakai, T. Vreven, J. A. Montgomery, Jr., 
 J. E. Peralta, F. Ogliaro, M. Bearpark, J. J. Heyd, E. Brothers, 
 K. N. Kudin, V. N. Staroverov, T. Keith, R. Kobayashi, J. Normand, 
 K. Raghavachari, A. Rendell, J. C. Burant, S. S. Iyengar, J. Tomasi, 
 M. Cossi, N. Rega, J. M. Millam, M. Klene, J. E. Knox, J. B. Cross, 
 V. Bakken, C. Adamo, J. Jaramillo, R. Gomperts, R. E. Stratmann, 
 O. Yazyev, A. J. Austin, R. Cammi, C. Pomelli, J. W. Ochterski, 
 R. L. Martin, K. Morokuma, V. G. Zakrzewski, G. A. Voth, 
 P. Salvador, J. J. Dannenberg, S. Dapprich, A. D. Daniels, 
 O. Farkas, J. B. Foresman, J. V. Ortiz, J. Cioslowski, 
 and D. J. Fox, Gaussian, Inc., Wallingford CT, 2013.
 
 ******************************************
 Gaussian 09:  ES64L-G09RevD.01 24-Apr-2013
                 6-Sep-2020 
 ******************************************
 %nprocshared=4
 Will use up to    4 processors via shared memory.
 %chk=dmad_cycloaddition_PM6_toluene.chk
 ----------------------------------------------------------------------
 # opt freq pm6 scrf=(cpcm,solvent=toluene) geom=connectivity empirical
 dispersion=gd3
 ----------------------------------------------------------------------
 1/14=-1,18=20,19=15,26=1,38=1,57=2/1,3;
 2/9=110,12=2,17=6,18=5,40=1/2;
 3/5=2,16=1,25=1,41=3900000,70=2101,71=1,72=13,124=31/1,2,3;
 4/35=1/1;
 5/5=2,35=1,38=5,53=13/2;
 6/7=2,8=2,9=2,10=2,28=1/1;
 7//1,2,3,16;
 1/14=-1,18=20,19=15,26=1/3(2);
 2/9=110/2;
 99//99;
 2/9=110/2;
 3/5=2,16=1,25=1,41=3900000,70=2105,71=1,72=13,124=31,135=20/1,2,3;
 4/5=5,16=3,35=1/1;
 5/5=2,35=1,38=5,53=13/2;
 7//1,2,3,16;
 1/14=-1,18=20,19=15,26=1/3(-5);
 2/9=110/2;
 6/7=2,8=2,9=2,10=2,19=2,28=1/1;
 99/9=1/99;
 -------------------
 Title Card Required
 -------------------
 Symbolic Z-matrix:
 Charge =  0 Multiplicity = 1
 N                    -1.20271   0.62478  -0.53992 
 N                    -0.6504    0.40864   0.53992 
 C                    -2.46829  -0.04824  -0.86589 
 C                     0.61518   1.08167   0.86589 
 O                     1.17933   0.86089   1.96887 
 O                    -3.03243   0.17253  -1.96887 
 O                     1.20524   1.98725  -0.0704 
 O                    -3.05835  -0.95382   0.07041 
 C                    -4.48026  -0.93604  -0.0805 
 H                    -4.92178  -1.61364   0.62009 
 H                    -4.84585   0.05305   0.101 
 H                    -4.73709  -1.23423  -1.0755 
 C                     2.62715   1.96948   0.0805 
 H                     3.06867   2.64709  -0.62008 
 H                     2.88398   2.26766   1.0755 
 H                     2.99275   0.98039  -0.10101 
 

 GradGradGradGradGradGradGradGradGradGradGradGradGradGradGradGradGradGrad
 Berny optimization.
 Initialization pass.
                           ----------------------------
                           !    Initial Parameters    !
                           ! (Angstroms and Degrees)  !
 --------------------------                            --------------------------
 ! Name  Definition              Value          Derivative Info.                !
 --------------------------------------------------------------------------------
 ! R1    R(1,2)                  1.232          estimate D2E/DX2                !
 ! R2    R(1,3)                  1.47           estimate D2E/DX2                !
 ! R3    R(2,4)                  1.47           estimate D2E/DX2                !
 ! R4    R(3,6)                  1.2584         estimate D2E/DX2                !
 ! R5    R(3,8)                  1.43           estimate D2E/DX2                !
 ! R6    R(4,5)                  1.2584         estimate D2E/DX2                !
 ! R7    R(4,7)                  1.43           estimate D2E/DX2                !
 ! R8    R(7,13)                 1.43           estimate D2E/DX2                !
 ! R9    R(8,9)                  1.43           estimate D2E/DX2                !
 ! R10   R(9,10)                 1.07           estimate D2E/DX2                !
 ! R11   R(9,11)                 1.07           estimate D2E/DX2                !
 ! R12   R(9,12)                 1.07           estimate D2E/DX2                !
 ! R13   R(13,14)                1.07           estimate D2E/DX2                !
 ! R14   R(13,15)                1.07           estimate D2E/DX2                !
 ! R15   R(13,16)                1.07           estimate D2E/DX2                !
 ! A1    A(2,1,3)              120.0            estimate D2E/DX2                !
 ! A2    A(1,2,4)              120.0            estimate D2E/DX2                !
 ! A3    A(1,3,6)              120.0            estimate D2E/DX2                !
 ! A4    A(1,3,8)              120.0            estimate D2E/DX2                !
 ! A5    A(6,3,8)              120.0            estimate D2E/DX2                !
 ! A6    A(2,4,5)              120.0            estimate D2E/DX2                !
 ! A7    A(2,4,7)              120.0            estimate D2E/DX2                !
 ! A8    A(5,4,7)              120.0            estimate D2E/DX2                !
 ! A9    A(4,7,13)             109.4712         estimate D2E/DX2                !
 ! A10   A(3,8,9)              109.4712         estimate D2E/DX2                !
 ! A11   A(8,9,10)             109.4712         estimate D2E/DX2                !
 ! A12   A(8,9,11)             109.4712         estimate D2E/DX2                !
 ! A13   A(8,9,12)             109.4712         estimate D2E/DX2                !
 ! A14   A(10,9,11)            109.4712         estimate D2E/DX2                !
 ! A15   A(10,9,12)            109.4712         estimate D2E/DX2                !
 ! A16   A(11,9,12)            109.4712         estimate D2E/DX2                !
 ! A17   A(7,13,14)            109.4712         estimate D2E/DX2                !
 ! A18   A(7,13,15)            109.4712         estimate D2E/DX2                !
 ! A19   A(7,13,16)            109.4712         estimate D2E/DX2                !
 ! A20   A(14,13,15)           109.4712         estimate D2E/DX2                !
 ! A21   A(14,13,16)           109.4712         estimate D2E/DX2                !
 ! A22   A(15,13,16)           109.4712         estimate D2E/DX2                !
 ! D1    D(3,1,2,4)           -179.9999         estimate D2E/DX2                !
 ! D2    D(2,1,3,6)           -179.9999         estimate D2E/DX2                !
 ! D3    D(2,1,3,8)              0.0001         estimate D2E/DX2                !
 ! D4    D(1,2,4,5)           -179.9998         estimate D2E/DX2                !
 ! D5    D(1,2,4,7)              0.0002         estimate D2E/DX2                !
 ! D6    D(1,3,8,9)            150.0            estimate D2E/DX2                !
 ! D7    D(6,3,8,9)            -30.0            estimate D2E/DX2                !
 ! D8    D(2,4,7,13)          -150.0            estimate D2E/DX2                !
 ! D9    D(5,4,7,13)            30.0            estimate D2E/DX2                !
 ! D10   D(4,7,13,14)          180.0            estimate D2E/DX2                !
 ! D11   D(4,7,13,15)          -60.0            estimate D2E/DX2                !
 ! D12   D(4,7,13,16)           60.0            estimate D2E/DX2                !
 ! D13   D(3,8,9,10)           180.0            estimate D2E/DX2                !
 ! D14   D(3,8,9,11)           -60.0            estimate D2E/DX2                !
 ! D15   D(3,8,9,12)            60.0            estimate D2E/DX2                !
 --------------------------------------------------------------------------------
 Trust Radius=3.00D-01 FncErr=1.00D-07 GrdErr=1.00D-07
 Number of steps in this run=     62 maximum allowed number of steps=    100.
 GradGradGradGradGradGradGradGradGradGradGradGradGradGradGradGradGradGrad

                          Input orientation:                          
 ---------------------------------------------------------------------
 Center     Atomic      Atomic             Coordinates (Angstroms)
 Number     Number       Type             X           Y           Z
 ---------------------------------------------------------------------
      1          7           0       -1.202707    0.624783   -0.539922
      2          7           0       -0.650396    0.408645    0.539921
      3          6           0       -2.468286   -0.048237   -0.865889
      4          6           0        0.615181    1.081667    0.865888
      5          8           0        1.179329    0.860894    1.968870
      6          8           0       -3.032431    0.172531   -1.968872
      7          8           0        1.205245    1.987252   -0.070402
      8          8           0       -3.058354   -0.953817    0.070405
      9          6           0       -4.480258   -0.936042   -0.080498
     10          1           0       -4.921777   -1.613643    0.620085
     11          1           0       -4.845853    0.053047    0.101004
     12          1           0       -4.737086   -1.234229   -1.075498
     13          6           0        2.627150    1.969481    0.080499
     14          1           0        3.068666    2.647087   -0.620082
     15          1           0        2.883978    2.267664    1.075499
     16          1           0        2.992747    0.980394   -0.101009
 ---------------------------------------------------------------------
                    Distance matrix (angstroms):
                    1          2          3          4          5
     1  N    0.000000
     2  N    1.232000   0.000000
     3  C    1.470000   2.343025   0.000000
     4  C    2.343025   1.470000   3.712614   0.000000
     5  O    3.467547   2.365231   4.708234   1.258400   0.000000
     6  O    2.365231   3.467547   1.258400   4.708234   5.806770
     7  O    2.806244   2.511553   4.274441   1.430000   2.329803
     8  O    2.511553   2.806244   1.430000   4.274441   4.985509
     9  C    3.659178   4.106208   2.335180   5.561501   6.281705
    10  H    4.493067   4.726602   3.267757   6.163037   6.720569
    11  H    3.743018   4.233315   2.568651   5.609457   6.359588
    12  H    4.029218   4.691444   2.568651   6.146472   6.975792
    13  C    4.106207   3.659178   5.561501   2.335180   2.625089
    14  H    4.726602   4.493067   6.163037   3.267757   3.669162
    15  H    4.691443   4.029218   6.146472   2.568651   2.383892
    16  H    4.233313   3.743018   5.609457   2.568651   2.754481
                    6          7          8          9         10
     6  O    0.000000
     7  O    4.985509   0.000000
     8  O    2.329803   5.181504   0.000000
     9  C    2.625089   6.393019   1.430000   0.000000
    10  H    3.669162   7.140281   2.051796   1.070000   0.000000
    11  H    2.754481   6.355023   2.051796   1.070000   1.747303
    12  H    2.383892   6.833700   2.051796   1.070000   1.747303
    13  C    6.281704   1.430000   6.393021   7.680054   8.373543
    14  H    6.720568   2.051796   7.140283   8.373542   9.139968
    15  H    6.975792   2.051796   6.833700   8.113694   8.729362
    16  H    6.359586   2.051796   6.355028   7.714853   8.359946
                   11         12         13         14         15
    11  H    0.000000
    12  H    1.747303   0.000000
    13  C    7.714850   8.113695   0.000000
    14  H    8.359941   8.729363   1.070000   0.000000
    15  H    8.099659   8.658560   1.070000   1.747303   0.000000
    16  H    7.895850   8.099661   1.070000   1.747303   1.747303
                   16
    16  H    0.000000
 Stoichiometry    C4H6N2O4
 Framework group  C1[X(C4H6N2O4)]
 Deg. of freedom    42
 Full point group                 C1      NOp   1
 Largest Abelian subgroup         C1      NOp   1
 Largest concise Abelian subgroup C1      NOp   1
                         Standard orientation:                         
 ---------------------------------------------------------------------
 Center     Atomic      Atomic             Coordinates (Angstroms)
 Number     Number       Type             X           Y           Z
 ---------------------------------------------------------------------
      1          7           0       -0.319835    0.524855    0.041087
      2          7           0        0.319835   -0.524856   -0.041092
      3          6           0       -1.782036    0.508227   -0.109214
      4          6           0        1.782036   -0.508228    0.109211
      5          8           0        2.435414   -1.580432    0.025267
      6          8           0       -2.435413    1.580432   -0.025274
      7          8           0        2.461975    0.726361    0.350816
      8          8           0       -2.461976   -0.726363   -0.350811
      9          6           0       -3.776385   -0.664121    0.208972
     10          1           0       -4.285151   -1.587905    0.028197
     11          1           0       -3.707397   -0.495321    1.263319
     12          1           0       -4.320114    0.137436   -0.245742
     13          6           0        3.776385    0.664123   -0.208964
     14          1           0        4.285150    1.587906   -0.028183
     15          1           0        4.320114   -0.137437    0.245745
     16          1           0        3.707399    0.495328   -1.263312
 ---------------------------------------------------------------------
 Rotational constants (GHZ):      3.7383396      0.5515388      0.4886199
 Standard basis: VSTO-6G (5D, 7F)
 There are    46 symmetry adapted cartesian basis functions of A   symmetry.
 There are    46 symmetry adapted basis functions of A   symmetry.
    46 basis functions,   276 primitive gaussians,    46 cartesian basis functions
    28 alpha electrons       28 beta electrons
       nuclear repulsion energy       317.8779075585 Hartrees.
 Integral buffers will be    131072 words long.
 Regular integral format.
 Two-electron integral symmetry is turned off.
 Nuclear repulsion after empirical dispersion term =      317.8758026898 Hartrees.
 ------------------------------------------------------------------------------
 Polarizable Continuum Model (PCM)
 =================================
 Model                : C-PCM.
 Atomic radii         : UFF (Universal Force Field).
 Polarization charges : Total charges.
 Charge compensation  : None.
 Solution method      : On-the-fly selection.
 Cavity type          : Scaled VdW (van der Waals Surface) (Alpha=1.100).
 Cavity algorithm     : GePol (No added spheres)
                        Default sphere list used, NSphG=   16.
                        Lebedev-Laikov grids with approx.  5.0 points / Ang**2.
                        Smoothing algorithm: Karplus/York (Gamma=1.0000).
                        Polarization charges: spherical gaussians, with
                                              point-specific exponents (IZeta= 3).
                        Self-potential: point-specific (ISelfS= 7).
                        Self-field    : sphere-specific E.n sum rule (ISelfD= 2).
 1st derivatives      : Analytical E(r).r(x)/FMM algorithm (CHGder, D1EAlg=3).
                        Cavity 1st derivative terms included.
 Solvent              : Toluene, Eps=   2.374100 Eps(inf)=   2.238315
 ------------------------------------------------------------------------------
 Spheres list:
 ISph  on   Nord     Re0    Alpha      Xe            Ye            Ze
    1   N      1    1.8300  1.100     -0.319835      0.524855      0.041087
    2   N      2    1.8300  1.100      0.319835     -0.524856     -0.041092
    3   C      3    1.9255  1.100     -1.782036      0.508227     -0.109214
    4   C      4    1.9255  1.100      1.782036     -0.508228      0.109211
    5   O      5    1.7500  1.100      2.435414     -1.580432      0.025267
    6   O      6    1.7500  1.100     -2.435413      1.580432     -0.025274
    7   O      7    1.7500  1.100      2.461975      0.726361      0.350816
    8   O      8    1.7500  1.100     -2.461976     -0.726363     -0.350811
    9   C      9    1.9255  1.100     -3.776385     -0.664121      0.208972
   10   H     10    1.4430  1.100     -4.285151     -1.587905      0.028197
   11   H     11    1.4430  1.100     -3.707397     -0.495321      1.263319
   12   H     12    1.4430  1.100     -4.320114      0.137436     -0.245742
   13   C     13    1.9255  1.100      3.776385      0.664123     -0.208964
   14   H     14    1.4430  1.100      4.285150      1.587906     -0.028183
   15   H     15    1.4430  1.100      4.320114     -0.137437      0.245745
   16   H     16    1.4430  1.100      3.707399      0.495328     -1.263312
 ------------------------------------------------------------------------------
 Do NDO integrals.
 One-electron integrals computed using PRISM.
 NBasis=    46 RedAO= F EigKep=  0.00D+00  NBF=    46
 NBsUse=    46 1.00D-04 EigRej=  0.00D+00 NBFU=    46
 Simple Huckel Guess.
 Overlap will be assumed to be unity.
 Keep J ints in memory in canonical form, NReq=5729473.
 Requested convergence on RMS density matrix=1.00D-08 within 128 cycles.
 Requested convergence on MAX density matrix=1.00D-06.
 Requested convergence on             energy=1.00D-06.
 No special actions if energy rises.
 Inv3:  Mode=1 IEnd=     7375872.
 Iteration    1 A*A^-1 deviation from unit magnitude is 8.44D-15 for   1555.
 Iteration    1 A*A^-1 deviation from orthogonality  is 2.69D-15 for   1554    737.
 Iteration    1 A^-1*A deviation from unit magnitude is 8.22D-15 for   1555.
 Iteration    1 A^-1*A deviation from orthogonality  is 1.51D-15 for    790     98.
 Error on total polarization charges = -0.00031
 SCF Done:  E(RPM6D3) = -0.140981793037     A.U. after   16 cycles
            NFock= 15  Conv=0.38D-08     -V/T= 0.9956

 **********************************************************************

            Population analysis using the SCF density.

 **********************************************************************

 Orbital symmetries:
       Occupied  (A) (A) (A) (A) (A) (A) (A) (A) (A) (A) (A) (A)
                 (A) (A) (A) (A) (A) (A) (A) (A) (A) (A) (A) (A)
                 (A) (A) (A) (A)
       Virtual   (A) (A) (A) (A) (A) (A) (A) (A) (A) (A) (A) (A)
                 (A) (A) (A) (A) (A) (A)
 The electronic state is 1-A.
 Alpha  occ. eigenvalues --   -1.33194  -1.19024  -1.18401  -1.14141  -1.14058
 Alpha  occ. eigenvalues --   -1.03344  -0.95919  -0.93730  -0.84293  -0.77431
 Alpha  occ. eigenvalues --   -0.72746  -0.65833  -0.65473  -0.63542  -0.62640
 Alpha  occ. eigenvalues --   -0.61945  -0.58904  -0.57681  -0.57087  -0.53919
 Alpha  occ. eigenvalues --   -0.51170  -0.50624  -0.50563  -0.45214  -0.45098
 Alpha  occ. eigenvalues --   -0.43310  -0.43175  -0.39330
 Alpha virt. eigenvalues --   -0.09751  -0.03507  -0.01551   0.00605   0.01719
 Alpha virt. eigenvalues --    0.03222   0.08552   0.08931   0.09916   0.11332
 Alpha virt. eigenvalues --    0.12356   0.14231   0.18171   0.18174   0.18413
 Alpha virt. eigenvalues --    0.18417   0.20681   0.20683
          Condensed to atoms (all electrons):
               1          2          3          4          5          6
     1  N    5.107846   0.000000   0.000000   0.000000   0.000000   0.000000
     2  N    0.000000   5.107846   0.000000   0.000000   0.000000   0.000000
     3  C    0.000000   0.000000   3.357979   0.000000   0.000000   0.000000
     4  C    0.000000   0.000000   0.000000   3.357979   0.000000   0.000000
     5  O    0.000000   0.000000   0.000000   0.000000   6.433769   0.000000
     6  O    0.000000   0.000000   0.000000   0.000000   0.000000   6.433769
     7  O    0.000000   0.000000   0.000000   0.000000   0.000000   0.000000
     8  O    0.000000   0.000000   0.000000   0.000000   0.000000   0.000000
     9  C    0.000000   0.000000   0.000000   0.000000   0.000000   0.000000
    10  H    0.000000   0.000000   0.000000   0.000000   0.000000   0.000000
    11  H    0.000000   0.000000   0.000000   0.000000   0.000000   0.000000
    12  H    0.000000   0.000000   0.000000   0.000000   0.000000   0.000000
    13  C    0.000000   0.000000   0.000000   0.000000   0.000000   0.000000
    14  H    0.000000   0.000000   0.000000   0.000000   0.000000   0.000000
    15  H    0.000000   0.000000   0.000000   0.000000   0.000000   0.000000
    16  H    0.000000   0.000000   0.000000   0.000000   0.000000   0.000000
               7          8          9         10         11         12
     1  N    0.000000   0.000000   0.000000   0.000000   0.000000   0.000000
     2  N    0.000000   0.000000   0.000000   0.000000   0.000000   0.000000
     3  C    0.000000   0.000000   0.000000   0.000000   0.000000   0.000000
     4  C    0.000000   0.000000   0.000000   0.000000   0.000000   0.000000
     5  O    0.000000   0.000000   0.000000   0.000000   0.000000   0.000000
     6  O    0.000000   0.000000   0.000000   0.000000   0.000000   0.000000
     7  O    6.379936   0.000000   0.000000   0.000000   0.000000   0.000000
     8  O    0.000000   6.379936   0.000000   0.000000   0.000000   0.000000
     9  C    0.000000   0.000000   4.203742   0.000000   0.000000   0.000000
    10  H    0.000000   0.000000   0.000000   0.826845   0.000000   0.000000
    11  H    0.000000   0.000000   0.000000   0.000000   0.848954   0.000000
    12  H    0.000000   0.000000   0.000000   0.000000   0.000000   0.840929
    13  C    0.000000   0.000000   0.000000   0.000000   0.000000   0.000000
    14  H    0.000000   0.000000   0.000000   0.000000   0.000000   0.000000
    15  H    0.000000   0.000000   0.000000   0.000000   0.000000   0.000000
    16  H    0.000000   0.000000   0.000000   0.000000   0.000000   0.000000
              13         14         15         16
     1  N    0.000000   0.000000   0.000000   0.000000
     2  N    0.000000   0.000000   0.000000   0.000000
     3  C    0.000000   0.000000   0.000000   0.000000
     4  C    0.000000   0.000000   0.000000   0.000000
     5  O    0.000000   0.000000   0.000000   0.000000
     6  O    0.000000   0.000000   0.000000   0.000000
     7  O    0.000000   0.000000   0.000000   0.000000
     8  O    0.000000   0.000000   0.000000   0.000000
     9  C    0.000000   0.000000   0.000000   0.000000
    10  H    0.000000   0.000000   0.000000   0.000000
    11  H    0.000000   0.000000   0.000000   0.000000
    12  H    0.000000   0.000000   0.000000   0.000000
    13  C    4.203742   0.000000   0.000000   0.000000
    14  H    0.000000   0.826845   0.000000   0.000000
    15  H    0.000000   0.000000   0.840929   0.000000
    16  H    0.000000   0.000000   0.000000   0.848954
 Mulliken charges:
               1
     1  N   -0.107846
     2  N   -0.107846
     3  C    0.642021
     4  C    0.642021
     5  O   -0.433769
     6  O   -0.433769
     7  O   -0.379936
     8  O   -0.379936
     9  C   -0.203742
    10  H    0.173155
    11  H    0.151046
    12  H    0.159071
    13  C   -0.203742
    14  H    0.173155
    15  H    0.159071
    16  H    0.151046
 Sum of Mulliken charges =   0.00000
 Mulliken charges with hydrogens summed into heavy atoms:
               1
     1  N   -0.107846
     2  N   -0.107846
     3  C    0.642021
     4  C    0.642021
     5  O   -0.433769
     6  O   -0.433769
     7  O   -0.379936
     8  O   -0.379936
     9  C    0.279530
    13  C    0.279530
 Charge=              0.0000 electrons
 Dipole moment (field-independent basis, Debye):
    X=              0.0000    Y=              0.0000    Z=              0.0000  Tot=              0.0000
 N-N= 3.178758026898D+02 E-N=-5.632478664287D+02  KE=-3.206996899818D+01
 D1PCM: C-PCM CHGder 1st derivatives, ID1Alg=3 FixD1E=F DoIter=F DoCFld=F I1PDM=0.
 Calling FoFJK, ICntrl=      2127 FMM=F ISym2X=0 I1Cent= 0 IOpClX= 0 NMat=1 NMatS=1 NMatT=0.
 ***** Axes restored to original set *****
 -------------------------------------------------------------------
 Center     Atomic                   Forces (Hartrees/Bohr)
 Number     Number              X              Y              Z
 -------------------------------------------------------------------
      1        7          -0.011146274   -0.005814883   -0.004120948
      2        7           0.011146143    0.005815024    0.004121062
      3        6          -0.048084145   -0.008389922   -0.054420993
      4        6           0.048084360    0.008389594    0.054420849
      5        8          -0.040991589    0.011224122   -0.073637690
      6        8           0.040991406   -0.011223844    0.073637831
      7        8          -0.037011915   -0.032027542    0.016217394
      8        8           0.037012019    0.032027407   -0.016217493
      9        6          -0.012808196   -0.000778539   -0.005183804
     10        1           0.003034150   -0.010980346    0.012128693
     11        1          -0.006559045    0.014600176    0.004331664
     12        1          -0.006062982   -0.006307754   -0.015959224
     13        6           0.012808199    0.000778554    0.005183799
     14        1          -0.003034203    0.010980399   -0.012128634
     15        1           0.006062995    0.006307694    0.015959243
     16        1           0.006559078   -0.014600140   -0.004331750
 -------------------------------------------------------------------
 Cartesian Forces:  Max     0.073637831 RMS     0.026205284

 GradGradGradGradGradGradGradGradGradGradGradGradGradGradGradGradGradGrad
 Berny optimization.
 FormGI is forming the generalized inverse of G from B-inverse, IUseBI=4.
 Internal  Forces:  Max     0.084893199 RMS     0.021058727
 Search for a local minimum.
 Step number   1 out of a maximum of   62
 All quantities printed in internal units (Hartrees-Bohrs-Radians)
 Mixed Optimization -- RFO/linear search
 Second derivative matrix not updated -- first step.
 ITU=  0
     Eigenvalues ---    0.00766   0.00766   0.01030   0.01030   0.01295
     Eigenvalues ---    0.01295   0.01295   0.01295   0.03517   0.10344
     Eigenvalues ---    0.10344   0.10344   0.10344   0.16000   0.16000
     Eigenvalues ---    0.16000   0.16000   0.16000   0.16000   0.25000
     Eigenvalues ---    0.25000   0.25000   0.25000   0.25000   0.25000
     Eigenvalues ---    0.25000   0.25000   0.35740   0.35740   0.37230
     Eigenvalues ---    0.37230   0.37230   0.37230   0.37230   0.37230
     Eigenvalues ---    0.40989   0.40989   0.40989   0.40989   0.80209
     Eigenvalues ---    0.80209   0.90258
 RFO step:  Lambda=-4.28168546D-02 EMin= 7.65814505D-03
 Linear search not attempted -- first point.
 Maximum step size (   0.300) exceeded in Quadratic search.
    -- Step size scaled by   0.984
 Iteration  1 RMS(Cart)=  0.11193435 RMS(Int)=  0.00775461
 Iteration  2 RMS(Cart)=  0.01607177 RMS(Int)=  0.00030214
 Iteration  3 RMS(Cart)=  0.00014136 RMS(Int)=  0.00028618
 Iteration  4 RMS(Cart)=  0.00000003 RMS(Int)=  0.00028618
 Variable       Old X    -DE/DX   Delta X   Delta X   Delta X     New X
                                 (Linear)    (Quad)   (Total)
    R1        2.32814   0.00725   0.00000   0.00754   0.00754   2.33568
    R2        2.77790  -0.01020   0.00000  -0.02507  -0.02507   2.75282
    R3        2.77790  -0.01020   0.00000  -0.02507  -0.02507   2.75282
    R4        2.37803  -0.08489   0.00000  -0.09883  -0.09883   2.27920
    R5        2.70231  -0.03781   0.00000  -0.08215  -0.08215   2.62016
    R6        2.37803  -0.08489   0.00000  -0.09883  -0.09883   2.27920
    R7        2.70231  -0.03781   0.00000  -0.08215  -0.08215   2.62016
    R8        2.70231   0.02274   0.00000   0.04940   0.04940   2.75170
    R9        2.70231   0.02274   0.00000   0.04940   0.04940   2.75170
   R10        2.02201   0.01364   0.00000   0.03232   0.03232   2.05433
   R11        2.02201   0.01648   0.00000   0.03906   0.03906   2.06106
   R12        2.02201   0.01805   0.00000   0.04276   0.04276   2.06477
   R13        2.02201   0.01364   0.00000   0.03232   0.03232   2.05433
   R14        2.02201   0.01805   0.00000   0.04276   0.04276   2.06477
   R15        2.02201   0.01648   0.00000   0.03906   0.03906   2.06106
    A1        2.09440  -0.00088   0.00000  -0.00295  -0.00295   2.09145
    A2        2.09440  -0.00088   0.00000  -0.00295  -0.00295   2.09145
    A3        2.09440   0.00170   0.00000   0.00570   0.00554   2.09994
    A4        2.09440  -0.01446   0.00000  -0.04856  -0.04872   2.04568
    A5        2.09440   0.01276   0.00000   0.04286   0.04270   2.13710
    A6        2.09440   0.00170   0.00000   0.00570   0.00554   2.09994
    A7        2.09440  -0.01446   0.00000  -0.04856  -0.04872   2.04568
    A8        2.09440   0.01276   0.00000   0.04286   0.04270   2.13710
    A9        1.91063   0.02592   0.00000   0.08706   0.08706   1.99769
   A10        1.91063   0.02592   0.00000   0.08706   0.08706   1.99769
   A11        1.91063  -0.01654   0.00000  -0.08504  -0.08520   1.82543
   A12        1.91063   0.00388   0.00000   0.02103   0.02045   1.93109
   A13        1.91063   0.00558   0.00000   0.02970   0.02923   1.93986
   A14        1.91063   0.00284   0.00000   0.00854   0.00826   1.91889
   A15        1.91063   0.00255   0.00000   0.00798   0.00794   1.91857
   A16        1.91063   0.00168   0.00000   0.01780   0.01697   1.92760
   A17        1.91063  -0.01654   0.00000  -0.08504  -0.08520   1.82543
   A18        1.91063   0.00558   0.00000   0.02970   0.02923   1.93986
   A19        1.91063   0.00388   0.00000   0.02103   0.02045   1.93109
   A20        1.91063   0.00255   0.00000   0.00798   0.00794   1.91857
   A21        1.91063   0.00284   0.00000   0.00854   0.00826   1.91889
   A22        1.91063   0.00168   0.00000   0.01780   0.01697   1.92760
    D1       -3.14159   0.00000   0.00000   0.00000   0.00000  -3.14159
    D2       -3.14159   0.00180   0.00000   0.03431   0.03412  -3.10747
    D3        0.00000   0.00004   0.00000   0.00163   0.00182   0.00182
    D4       -3.14159  -0.00180   0.00000  -0.03431  -0.03412   3.10747
    D5        0.00000  -0.00004   0.00000  -0.00163  -0.00182  -0.00181
    D6        2.61799   0.00550   0.00000   0.09776   0.09794   2.71593
    D7       -0.52360   0.00373   0.00000   0.06508   0.06489  -0.45870
    D8       -2.61799  -0.00550   0.00000  -0.09776  -0.09794  -2.71593
    D9        0.52360  -0.00373   0.00000  -0.06507  -0.06489   0.45871
   D10       -3.14159  -0.00008   0.00000   0.00117   0.00137  -3.14022
   D11       -1.04720  -0.00366   0.00000  -0.02294  -0.02355  -1.07075
   D12        1.04720   0.00420   0.00000   0.02992   0.03033   1.07752
   D13       -3.14159   0.00008   0.00000  -0.00117  -0.00137   3.14022
   D14       -1.04720  -0.00420   0.00000  -0.02992  -0.03033  -1.07752
   D15        1.04720   0.00366   0.00000   0.02294   0.02355   1.07075
         Item               Value     Threshold  Converged?
 Maximum Force            0.084893     0.000450     NO 
 RMS     Force            0.021059     0.000300     NO 
 Maximum Displacement     0.288012     0.001800     NO 
 RMS     Displacement     0.121297     0.001200     NO 
 Predicted change in Energy=-2.403168D-02
 GradGradGradGradGradGradGradGradGradGradGradGradGradGradGradGradGradGrad

                          Input orientation:                          
 ---------------------------------------------------------------------
 Center     Atomic      Atomic             Coordinates (Angstroms)
 Number     Number       Type             X           Y           Z
 ---------------------------------------------------------------------
      1          7           0       -1.184043    0.641601   -0.547741
      2          7           0       -0.669062    0.391828    0.547741
      3          6           0       -2.462082    0.038920   -0.901939
      4          6           0        0.608978    0.994510    0.901939
      5          8           0        1.102390    0.784830    1.982339
      6          8           0       -2.955492    0.248596   -1.982341
      7          8           0        1.194351    1.834843   -0.032751
      8          8           0       -3.047459   -0.801407    0.032754
      9          6           0       -4.493176   -0.925096   -0.089502
     10          1           0       -4.777714   -1.609295    0.705924
     11          1           0       -4.975844    0.041356    0.060691
     12          1           0       -4.772304   -1.344513   -1.059046
     13          6           0        2.640067    1.958535    0.089503
     14          1           0        2.924603    2.642738   -0.705921
     15          1           0        2.919197    2.377948    1.059048
     16          1           0        3.122738    0.992085   -0.060696
 ---------------------------------------------------------------------
                    Distance matrix (angstroms):
                    1          2          3          4          5
     1  N    0.000000
     2  N    1.235991   0.000000
     3  C    1.456731   2.332604   0.000000
     4  C    2.332604   1.456731   3.687620   0.000000
     5  O    3.413150   2.313128   4.645525   1.206103   0.000000
     6  O    2.313128   3.413150   1.206103   4.645525   5.698477
     7  O    2.710313   2.427256   4.165373   1.386531   2.274109
     8  O    2.427256   2.710313   1.386531   4.165373   4.851627
     9  C    3.689835   4.094413   2.390548   5.540741   6.206991
    10  H    4.421842   4.572805   3.265576   5.986207   6.475855
    11  H    3.886932   4.348382   2.691777   5.727690   6.417976
    12  H    4.133002   4.736375   2.697350   6.186654   6.949544
    13  C    4.094412   3.689836   5.540741   2.390548   2.706448
    14  H    4.572804   4.421842   5.986206   3.265576   3.741527
    15  H    4.736375   4.133002   6.186654   2.697350   2.586750
    16  H    4.348380   3.886933   5.727690   2.691777   2.880755
                    6          7          8          9         10
     6  O    0.000000
     7  O    4.851626   0.000000
     8  O    2.274109   4.994703   0.000000
     9  C    2.706448   6.322060   1.456139   0.000000
    10  H    3.741526   6.933491   2.024753   1.087104   0.000000
    11  H    2.880755   6.426246   2.104685   1.090667   1.783320
    12  H    2.586750   6.838316   2.112364   1.092629   1.784729
    13  C    6.206989   1.456139   6.322061   7.696137   8.254264
    14  H    6.475854   2.024753   6.933491   8.254262   8.910599
    15  H    6.949543   2.112364   6.838316   8.195885   8.675554
    16  H    6.417973   2.104685   6.426249   7.853569   8.352965
                   11         12         13         14         15
    11  H    0.000000
    12  H    1.793285   0.000000
    13  C    7.853567   8.195886   0.000000
    14  H    8.352960   8.675555   1.087104   0.000000
    15  H    8.293856   8.803535   1.092629   1.784729   0.000000
    16  H    8.155100   8.293858   1.090667   1.783320   1.793285
                   16
    16  H    0.000000
 Stoichiometry    C4H6N2O4
 Framework group  C1[X(C4H6N2O4)]
 Deg. of freedom    42
 Full point group                 C1      NOp   1
 Largest Abelian subgroup         C1      NOp   1
 Largest concise Abelian subgroup C1      NOp   1
                         Standard orientation:                         
 ---------------------------------------------------------------------
 Center     Atomic      Atomic             Coordinates (Angstroms)
 Number     Number       Type             X           Y           Z
 ---------------------------------------------------------------------
      1          7           0       -0.304587    0.535793    0.045505
      2          7           0        0.304587   -0.535793   -0.045508
      3          6           0       -1.756602    0.555970   -0.069879
      4          6           0        1.756602   -0.555970    0.069876
      5          8           0        2.357048   -1.600679    0.017613
      6          8           0       -2.357048    1.600679   -0.017620
      7          8           0        2.392915    0.658124    0.278558
      8          8           0       -2.392916   -0.658125   -0.278554
      9          6           0       -3.781731   -0.693753    0.157640
     10          1           0       -4.117320   -1.700336   -0.078930
     11          1           0       -3.851788   -0.521168    1.232285
     12          1           0       -4.384617    0.037271   -0.386391
     13          6           0        3.781731    0.693755   -0.157633
     14          1           0        4.117319    1.700337    0.078943
     15          1           0        4.384617   -0.037272    0.386394
     16          1           0        3.851789    0.521176   -1.232279
 ---------------------------------------------------------------------
 Rotational constants (GHZ):      3.7323697      0.5674277      0.4989597
 Standard basis: VSTO-6G (5D, 7F)
 There are    46 symmetry adapted cartesian basis functions of A   symmetry.
 There are    46 symmetry adapted basis functions of A   symmetry.
    46 basis functions,   276 primitive gaussians,    46 cartesian basis functions
    28 alpha electrons       28 beta electrons
       nuclear repulsion energy       319.4444877220 Hartrees.
 Integral buffers will be    131072 words long.
 Regular integral format.
 Two-electron integral symmetry is turned off.
 Nuclear repulsion after empirical dispersion term =      319.4422431938 Hartrees.
 ------------------------------------------------------------------------------
 Polarizable Continuum Model (PCM)
 =================================
 Model                : C-PCM.
 Atomic radii         : UFF (Universal Force Field).
 Polarization charges : Total charges.
 Charge compensation  : None.
 Solution method      : On-the-fly selection.
 Cavity type          : Scaled VdW (van der Waals Surface) (Alpha=1.100).
 Cavity algorithm     : GePol (No added spheres)
                        Default sphere list used, NSphG=   16.
                        Lebedev-Laikov grids with approx.  5.0 points / Ang**2.
                        Smoothing algorithm: Karplus/York (Gamma=1.0000).
                        Polarization charges: spherical gaussians, with
                                              point-specific exponents (IZeta= 3).
                        Self-potential: point-specific (ISelfS= 7).
                        Self-field    : sphere-specific E.n sum rule (ISelfD= 2).
 1st derivatives      : Analytical E(r).r(x)/FMM algorithm (CHGder, D1EAlg=3).
                        Cavity 1st derivative terms included.
 Solvent              : Toluene, Eps=   2.374100 Eps(inf)=   2.238315
 ------------------------------------------------------------------------------
 Spheres list:
 ISph  on   Nord     Re0    Alpha      Xe            Ye            Ze
    1   N      1    1.8300  1.100     -0.304587      0.535793      0.045505
    2   N      2    1.8300  1.100      0.304587     -0.535793     -0.045508
    3   C      3    1.9255  1.100     -1.756602      0.555970     -0.069879
    4   C      4    1.9255  1.100      1.756602     -0.555970      0.069876
    5   O      5    1.7500  1.100      2.357048     -1.600679      0.017613
    6   O      6    1.7500  1.100     -2.357048      1.600679     -0.017620
    7   O      7    1.7500  1.100      2.392915      0.658124      0.278558
    8   O      8    1.7500  1.100     -2.392916     -0.658125     -0.278554
    9   C      9    1.9255  1.100     -3.781731     -0.693753      0.157640
   10   H     10    1.4430  1.100     -4.117320     -1.700336     -0.078930
   11   H     11    1.4430  1.100     -3.851788     -0.521168      1.232285
   12   H     12    1.4430  1.100     -4.384617      0.037271     -0.386391
   13   C     13    1.9255  1.100      3.781731      0.693755     -0.157633
   14   H     14    1.4430  1.100      4.117319      1.700337      0.078943
   15   H     15    1.4430  1.100      4.384617     -0.037272      0.386394
   16   H     16    1.4430  1.100      3.851789      0.521176     -1.232279
 ------------------------------------------------------------------------------
 Do NDO integrals.
 One-electron integrals computed using PRISM.
 NBasis=    46 RedAO= F EigKep=  0.00D+00  NBF=    46
 NBsUse=    46 1.00D-04 EigRej=  0.00D+00 NBFU=    46
 Initial guess from the checkpoint file:  "dmad_cycloaddition_PM6_toluene.chk"
 B after Tr=     0.000000    0.000000    0.000000
         Rot=    0.999977   -0.006307    0.001455    0.002004 Ang=  -0.78 deg.
 Overlap will be assumed to be unity.
 Keep J ints in memory in canonical form, NReq=5815913.
 Requested convergence on RMS density matrix=1.00D-08 within 128 cycles.
 Requested convergence on MAX density matrix=1.00D-06.
 Requested convergence on             energy=1.00D-06.
 No special actions if energy rises.
 Inv3:  Mode=1 IEnd=     7622508.
 Iteration    1 A*A^-1 deviation from unit magnitude is 5.11D-15 for    385.
 Iteration    1 A*A^-1 deviation from orthogonality  is 1.83D-15 for    566    198.
 Iteration    1 A^-1*A deviation from unit magnitude is 4.88D-15 for    385.
 Iteration    1 A^-1*A deviation from orthogonality  is 1.30D-15 for   1592   1578.
 Error on total polarization charges = -0.00031
 SCF Done:  E(RPM6D3) = -0.166529950908     A.U. after   14 cycles
            NFock= 13  Conv=0.67D-08     -V/T= 0.9948
 D1PCM: C-PCM CHGder 1st derivatives, ID1Alg=3 FixD1E=F DoIter=F DoCFld=F I1PDM=0.
 Calling FoFJK, ICntrl=      2127 FMM=F ISym2X=0 I1Cent= 0 IOpClX= 0 NMat=1 NMatS=1 NMatT=0.
 ***** Axes restored to original set *****
 -------------------------------------------------------------------
 Center     Atomic                   Forces (Hartrees/Bohr)
 Number     Number              X              Y              Z
 -------------------------------------------------------------------
      1        7           0.004469886   -0.000130379    0.006274820
      2        7          -0.004469904    0.000130379   -0.006274809
      3        6          -0.021892527   -0.014058738   -0.009808030
      4        6           0.021892480    0.014058809    0.009808081
      5        8          -0.003095748   -0.002993933   -0.004082032
      6        8           0.003095777    0.002993904    0.004082000
      7        8          -0.007003120   -0.013972749    0.000368106
      8        8           0.007003160    0.013972720   -0.000368150
      9        6          -0.004220596   -0.002146571   -0.004597128
     10        1           0.003124298   -0.003729916    0.005022135
     11        1           0.001398533    0.003355232    0.000355433
     12        1           0.001767877   -0.000587062   -0.002747464
     13        6           0.004220595    0.002146557    0.004597129
     14        1          -0.003124315    0.003729933   -0.005022112
     15        1          -0.001767875    0.000587045    0.002747470
     16        1          -0.001398522   -0.003355231   -0.000355447
 -------------------------------------------------------------------
 Cartesian Forces:  Max     0.021892527 RMS     0.007155809

 GradGradGradGradGradGradGradGradGradGradGradGradGradGradGradGradGradGrad
 Berny optimization.
 Using GEDIIS/GDIIS optimizer.
 FormGI is forming the generalized inverse of G from B-inverse, IUseBI=4.
 Internal  Forces:  Max     0.012009970 RMS     0.005309353
 Search for a local minimum.
 Step number   2 out of a maximum of   62
 All quantities printed in internal units (Hartrees-Bohrs-Radians)
 Mixed Optimization -- RFO/linear search
 Update second derivatives using D2CorX and points    1    2
 DE= -2.55D-02 DEPred=-2.40D-02 R= 1.06D+00
 TightC=F SS=  1.41D+00  RLast= 3.50D-01 DXNew= 5.0454D-01 1.0498D+00
 Trust test= 1.06D+00 RLast= 3.50D-01 DXMaxT set to 5.05D-01
 ITU=  1  0
 Use linear search instead of GDIIS.
     Eigenvalues ---    0.00766   0.00766   0.01043   0.01050   0.01271
     Eigenvalues ---    0.01295   0.01295   0.01295   0.03517   0.10082
     Eigenvalues ---    0.10243   0.10779   0.10780   0.14978   0.16000
     Eigenvalues ---    0.16000   0.16000   0.16000   0.16336   0.21835
     Eigenvalues ---    0.24995   0.24996   0.25000   0.25000   0.25000
     Eigenvalues ---    0.25000   0.25728   0.34963   0.35740   0.37137
     Eigenvalues ---    0.37230   0.37230   0.37230   0.37230   0.38090
     Eigenvalues ---    0.39811   0.40989   0.40989   0.43027   0.80209
     Eigenvalues ---    0.85486   0.90335
 RFO step:  Lambda=-8.41628737D-03 EMin= 7.65782304D-03
 Quartic linear search produced a step of  0.22701.
 Iteration  1 RMS(Cart)=  0.13025506 RMS(Int)=  0.01256086
 Iteration  2 RMS(Cart)=  0.02425309 RMS(Int)=  0.00038104
 Iteration  3 RMS(Cart)=  0.00037143 RMS(Int)=  0.00030816
 Iteration  4 RMS(Cart)=  0.00000011 RMS(Int)=  0.00030816
 Variable       Old X    -DE/DX   Delta X   Delta X   Delta X     New X
                                 (Linear)    (Quad)   (Total)
    R1        2.33568   0.00372   0.00171   0.00416   0.00588   2.34156
    R2        2.75282   0.01057  -0.00569   0.03797   0.03228   2.78511
    R3        2.75282   0.01057  -0.00569   0.03797   0.03228   2.78511
    R4        2.27920  -0.00440  -0.02243   0.00364  -0.01880   2.26041
    R5        2.62016  -0.01201  -0.01865  -0.02493  -0.04358   2.57658
    R6        2.27920  -0.00440  -0.02243   0.00364  -0.01880   2.26041
    R7        2.62016  -0.01201  -0.01865  -0.02493  -0.04358   2.57658
    R8        2.75170  -0.00161   0.01121  -0.01050   0.00071   2.75241
    R9        2.75170  -0.00161   0.01121  -0.01050   0.00071   2.75241
   R10        2.05433   0.00520   0.00734   0.01256   0.01990   2.07422
   R11        2.06106   0.00241   0.00887   0.00291   0.01178   2.07284
   R12        2.06477   0.00221   0.00971   0.00181   0.01152   2.07628
   R13        2.05433   0.00520   0.00734   0.01256   0.01990   2.07422
   R14        2.06477   0.00221   0.00971   0.00181   0.01152   2.07628
   R15        2.06106   0.00241   0.00887   0.00291   0.01178   2.07284
    A1        2.09145   0.00448  -0.00067   0.02135   0.02068   2.11212
    A2        2.09145   0.00448  -0.00067   0.02135   0.02068   2.11212
    A3        2.09994   0.00229   0.00126   0.01051   0.01128   2.11122
    A4        2.04568  -0.01196  -0.01106  -0.04861  -0.06015   1.98552
    A5        2.13710   0.00968   0.00969   0.03991   0.04911   2.18621
    A6        2.09994   0.00229   0.00126   0.01051   0.01128   2.11122
    A7        2.04568  -0.01196  -0.01106  -0.04861  -0.06015   1.98552
    A8        2.13710   0.00968   0.00969   0.03991   0.04911   2.18621
    A9        1.99769   0.00496   0.01976   0.01117   0.03093   2.02863
   A10        1.99769   0.00496   0.01976   0.01117   0.03093   2.02863
   A11        1.82543  -0.00597  -0.01934  -0.02832  -0.04814   1.77729
   A12        1.93109  -0.00251   0.00464  -0.02164  -0.01744   1.91364
   A13        1.93986  -0.00197   0.00664  -0.01914  -0.01291   1.92695
   A14        1.91889   0.00376   0.00187   0.02605   0.02733   1.94623
   A15        1.91857   0.00363   0.00180   0.02524   0.02657   1.94514
   A16        1.92760   0.00275   0.00385   0.01652   0.01996   1.94756
   A17        1.82543  -0.00597  -0.01934  -0.02832  -0.04814   1.77729
   A18        1.93986  -0.00197   0.00664  -0.01914  -0.01291   1.92695
   A19        1.93109  -0.00251   0.00464  -0.02164  -0.01744   1.91364
   A20        1.91857   0.00363   0.00180   0.02524   0.02657   1.94514
   A21        1.91889   0.00376   0.00187   0.02605   0.02733   1.94623
   A22        1.92760   0.00275   0.00385   0.01652   0.01996   1.94756
    D1       -3.14159   0.00000   0.00000   0.00000   0.00000  -3.14159
    D2       -3.10747   0.00046   0.00775   0.01144   0.01950  -3.08797
    D3        0.00182   0.00111   0.00041   0.07382   0.07391   0.07573
    D4        3.10747  -0.00046  -0.00775  -0.01143  -0.01950   3.08798
    D5       -0.00181  -0.00111  -0.00041  -0.07382  -0.07391  -0.07573
    D6        2.71593   0.00427   0.02223   0.16694   0.18888   2.90481
    D7       -0.45870   0.00478   0.01473   0.23011   0.24514  -0.21357
    D8       -2.71593  -0.00427  -0.02223  -0.16694  -0.18888  -2.90481
    D9        0.45871  -0.00478  -0.01473  -0.23012  -0.24514   0.21356
   D10       -3.14022   0.00008   0.00031   0.00360   0.00402  -3.13620
   D11       -1.07075  -0.00008  -0.00535   0.00734   0.00207  -1.06868
   D12        1.07752   0.00029   0.00688  -0.00022   0.00648   1.08400
   D13        3.14022  -0.00008  -0.00031  -0.00360  -0.00402   3.13620
   D14       -1.07752  -0.00029  -0.00688   0.00022  -0.00648  -1.08400
   D15        1.07075   0.00008   0.00535  -0.00734  -0.00207   1.06868
         Item               Value     Threshold  Converged?
 Maximum Force            0.012010     0.000450     NO 
 RMS     Force            0.005309     0.000300     NO 
 Maximum Displacement     0.319475     0.001800     NO 
 RMS     Displacement     0.148130     0.001200     NO 
 Predicted change in Energy=-6.416962D-03
 GradGradGradGradGradGradGradGradGradGradGradGradGradGradGradGradGradGrad

                          Input orientation:                          
 ---------------------------------------------------------------------
 Center     Atomic      Atomic             Coordinates (Angstroms)
 Number     Number       Type             X           Y           Z
 ---------------------------------------------------------------------
      1          7           0       -1.197332    0.673893   -0.534618
      2          7           0       -0.655772    0.359537    0.534617
      3          6           0       -2.519094    0.136175   -0.903309
      4          6           0        0.665990    0.897255    0.903309
      5          8           0        1.163713    0.636551    1.959288
      6          8           0       -3.016813    0.396872   -1.959292
      7          8           0        1.236753    1.665786   -0.067585
      8          8           0       -3.089861   -0.632348    0.067588
      9          6           0       -4.504034   -0.937430   -0.101169
     10          1           0       -4.708532   -1.553520    0.783935
     11          1           0       -5.086031   -0.007767   -0.087306
     12          1           0       -4.666007   -1.501939   -1.029762
     13          6           0        2.650925    1.970869    0.101170
     14          1           0        2.855420    2.586965   -0.783930
     15          1           0        2.812900    2.535372    1.029766
     16          1           0        3.232924    1.041207    0.087299
 ---------------------------------------------------------------------
                    Distance matrix (angstroms):
                    1          2          3          4          5
     1  N    0.000000
     2  N    1.239101   0.000000
     3  C    1.473814   2.364211   0.000000
     4  C    2.364211   1.473814   3.740036   0.000000
     5  O    3.434457   2.327434   4.691259   1.196155   0.000000
     6  O    2.327434   3.434457   1.196155   4.691259   5.734939
     7  O    2.669596   2.377096   4.140596   1.363468   2.274395
     8  O    2.377096   2.669596   1.363468   4.140596   4.825094
     9  C    3.703851   4.110409   2.395003   5.577113   6.232676
    10  H    4.362164   4.488520   3.239676   5.908133   6.376608
    11  H    3.973251   4.488752   2.697359   5.906448   6.607798
    12  H    4.124453   4.689814   2.703450   6.158172   6.891531
    13  C    4.110408   3.703851   5.577112   2.395003   2.728517
    14  H    4.488519   4.362164   5.908132   3.239676   3.767126
    15  H    4.689815   4.124453   6.158173   2.703450   2.681296
    16  H    4.488749   3.973251   5.906446   2.697359   2.819525
                    6          7          8          9         10
     6  O    0.000000
     7  O    4.825093   0.000000
     8  O    2.274395   4.900947   0.000000
     9  C    2.728517   6.303530   1.456515   0.000000
    10  H    3.767126   6.814355   1.995446   1.097632   0.000000
    11  H    2.819526   6.540548   2.097329   1.096898   1.814090
    12  H    2.681296   6.767779   2.108222   1.098723   1.814929
    13  C    6.232674   1.456515   6.303530   7.726097   8.188351
    14  H    6.376606   1.995446   6.814355   8.188350   8.764427
    15  H    6.891532   2.108222   6.767779   8.177829   8.564544
    16  H    6.607793   2.097329   6.540550   7.988181   8.383593
                   11         12         13         14         15
    11  H    0.000000
    12  H    1.815818   0.000000
    13  C    7.988179   8.177829   0.000000
    14  H    8.383589   8.564545   1.097632   0.000000
    15  H    8.373083   8.745032   1.098723   1.814929   0.000000
    16  H    8.386647   8.373083   1.096898   1.814089   1.815818
                   16
    16  H    0.000000
 Stoichiometry    C4H6N2O4
 Framework group  C1[X(C4H6N2O4)]
 Deg. of freedom    42
 Full point group                 C1      NOp   1
 Largest Abelian subgroup         C1      NOp   1
 Largest concise Abelian subgroup C1      NOp   1
                         Standard orientation:                         
 ---------------------------------------------------------------------
 Center     Atomic      Atomic             Coordinates (Angstroms)
 Number     Number       Type             X           Y           Z
 ---------------------------------------------------------------------
      1          7           0       -0.309003    0.535063    0.045461
      2          7           0        0.309004   -0.535064   -0.045465
      3          6           0       -1.779618    0.572704   -0.044000
      4          6           0        1.779619   -0.572705    0.043998
      5          8           0        2.371815   -1.611446    0.010732
      6          8           0       -2.371815    1.611446   -0.010744
      7          8           0        2.356163    0.659455    0.135774
      8          8           0       -2.356163   -0.659456   -0.135767
      9          6           0       -3.795579   -0.714385    0.079879
     10          1           0       -4.002144   -1.784376   -0.051447
     11          1           0       -4.028742   -0.381840    1.098817
     12          1           0       -4.319086   -0.108806   -0.672721
     13          6           0        3.795578    0.714386   -0.079871
     14          1           0        4.002143    1.784376    0.051462
     15          1           0        4.319086    0.108803    0.672724
     16          1           0        4.028742    0.381850   -1.098812
 ---------------------------------------------------------------------
 Rotational constants (GHZ):      3.7266233      0.5683362      0.4971978
 Standard basis: VSTO-6G (5D, 7F)
 There are    46 symmetry adapted cartesian basis functions of A   symmetry.
 There are    46 symmetry adapted basis functions of A   symmetry.
    46 basis functions,   276 primitive gaussians,    46 cartesian basis functions
    28 alpha electrons       28 beta electrons
       nuclear repulsion energy       319.5441630449 Hartrees.
 Integral buffers will be    131072 words long.
 Regular integral format.
 Two-electron integral symmetry is turned off.
 Nuclear repulsion after empirical dispersion term =      319.5418898596 Hartrees.
 ------------------------------------------------------------------------------
 Polarizable Continuum Model (PCM)
 =================================
 Model                : C-PCM.
 Atomic radii         : UFF (Universal Force Field).
 Polarization charges : Total charges.
 Charge compensation  : None.
 Solution method      : On-the-fly selection.
 Cavity type          : Scaled VdW (van der Waals Surface) (Alpha=1.100).
 Cavity algorithm     : GePol (No added spheres)
                        Default sphere list used, NSphG=   16.
                        Lebedev-Laikov grids with approx.  5.0 points / Ang**2.
                        Smoothing algorithm: Karplus/York (Gamma=1.0000).
                        Polarization charges: spherical gaussians, with
                                              point-specific exponents (IZeta= 3).
                        Self-potential: point-specific (ISelfS= 7).
                        Self-field    : sphere-specific E.n sum rule (ISelfD= 2).
 1st derivatives      : Analytical E(r).r(x)/FMM algorithm (CHGder, D1EAlg=3).
                        Cavity 1st derivative terms included.
 Solvent              : Toluene, Eps=   2.374100 Eps(inf)=   2.238315
 ------------------------------------------------------------------------------
 Spheres list:
 ISph  on   Nord     Re0    Alpha      Xe            Ye            Ze
    1   N      1    1.8300  1.100     -0.309003      0.535063      0.045461
    2   N      2    1.8300  1.100      0.309004     -0.535064     -0.045465
    3   C      3    1.9255  1.100     -1.779618      0.572704     -0.044000
    4   C      4    1.9255  1.100      1.779619     -0.572705      0.043998
    5   O      5    1.7500  1.100      2.371815     -1.611446      0.010732
    6   O      6    1.7500  1.100     -2.371815      1.611446     -0.010744
    7   O      7    1.7500  1.100      2.356163      0.659455      0.135774
    8   O      8    1.7500  1.100     -2.356163     -0.659456     -0.135767
    9   C      9    1.9255  1.100     -3.795579     -0.714385      0.079879
   10   H     10    1.4430  1.100     -4.002144     -1.784376     -0.051447
   11   H     11    1.4430  1.100     -4.028742     -0.381840      1.098817
   12   H     12    1.4430  1.100     -4.319086     -0.108806     -0.672721
   13   C     13    1.9255  1.100      3.795578      0.714386     -0.079871
   14   H     14    1.4430  1.100      4.002143      1.784376      0.051462
   15   H     15    1.4430  1.100      4.319086      0.108803      0.672724
   16   H     16    1.4430  1.100      4.028742      0.381850     -1.098812
 ------------------------------------------------------------------------------
 Do NDO integrals.
 One-electron integrals computed using PRISM.
 NBasis=    46 RedAO= F EigKep=  0.00D+00  NBF=    46
 NBsUse=    46 1.00D-04 EigRej=  0.00D+00 NBFU=    46
 Initial guess from the checkpoint file:  "dmad_cycloaddition_PM6_toluene.chk"
 B after Tr=     0.000000    0.000000    0.000000
         Rot=    0.999978    0.006223    0.001253   -0.001935 Ang=   0.76 deg.
 Overlap will be assumed to be unity.
 Keep J ints in memory in canonical form, NReq=5782131.
 Requested convergence on RMS density matrix=1.00D-08 within 128 cycles.
 Requested convergence on MAX density matrix=1.00D-06.
 Requested convergence on             energy=1.00D-06.
 No special actions if energy rises.
 Inv3:  Mode=1 IEnd=     7527168.
 Iteration    1 A*A^-1 deviation from unit magnitude is 5.11D-15 for   1570.
 Iteration    1 A*A^-1 deviation from orthogonality  is 1.66D-15 for   1281    117.
 Iteration    1 A^-1*A deviation from unit magnitude is 5.11D-15 for   1570.
 Iteration    1 A^-1*A deviation from orthogonality  is 1.44D-15 for   1583    784.
 Error on total polarization charges = -0.00031
 SCF Done:  E(RPM6D3) = -0.173353988991     A.U. after   14 cycles
            NFock= 13  Conv=0.98D-08     -V/T= 0.9946
 D1PCM: C-PCM CHGder 1st derivatives, ID1Alg=3 FixD1E=F DoIter=F DoCFld=F I1PDM=0.
 Calling FoFJK, ICntrl=      2127 FMM=F ISym2X=0 I1Cent= 0 IOpClX= 0 NMat=1 NMatS=1 NMatT=0.
 ***** Axes restored to original set *****
 -------------------------------------------------------------------
 Center     Atomic                   Forces (Hartrees/Bohr)
 Number     Number              X              Y              Z
 -------------------------------------------------------------------
      1        7           0.007227397    0.000344788    0.008670948
      2        7          -0.007227504   -0.000344630   -0.008670842
      3        6          -0.001262671   -0.004118059    0.006572831
      4        6           0.001262854    0.004117736   -0.006573014
      5        8           0.002181481   -0.003508499    0.009318233
      6        8          -0.002181502    0.003508537   -0.009318212
      7        8          -0.002530817   -0.003748948   -0.002501253
      8        8           0.002530777    0.003749054    0.002501281
      9        6          -0.002734780   -0.002832962   -0.001408767
     10        1          -0.000161748   -0.000300737    0.000274971
     11        1           0.000764516   -0.000918358   -0.000219762
     12        1           0.000731827    0.001210037    0.001402189
     13        6           0.002734772    0.002832983    0.001408791
     14        1           0.000161746    0.000300739   -0.000274970
     15        1          -0.000731825   -0.001210030   -0.001402197
     16        1          -0.000764524    0.000918351    0.000219771
 -------------------------------------------------------------------
 Cartesian Forces:  Max     0.009318233 RMS     0.003780609

 GradGradGradGradGradGradGradGradGradGradGradGradGradGradGradGradGradGrad
 Berny optimization.
 Using GEDIIS/GDIIS optimizer.
 FormGI is forming the generalized inverse of G from B-inverse, IUseBI=4.
 Internal  Forces:  Max     0.009899689 RMS     0.002970921
 Search for a local minimum.
 Step number   3 out of a maximum of   62
 All quantities printed in internal units (Hartrees-Bohrs-Radians)
 Mixed Optimization -- RFO/linear search
 Update second derivatives using D2CorX and points    2    3
 DE= -6.82D-03 DEPred=-6.42D-03 R= 1.06D+00
 TightC=F SS=  1.41D+00  RLast= 4.85D-01 DXNew= 8.4853D-01 1.4564D+00
 Trust test= 1.06D+00 RLast= 4.85D-01 DXMaxT set to 8.49D-01
 ITU=  1  1  0
 Use linear search instead of GDIIS.
     Eigenvalues ---    0.00721   0.00766   0.00978   0.01047   0.01293
     Eigenvalues ---    0.01295   0.01295   0.01303   0.03517   0.10259
     Eigenvalues ---    0.10429   0.11077   0.11077   0.14714   0.16000
     Eigenvalues ---    0.16000   0.16000   0.16020   0.16316   0.19391
     Eigenvalues ---    0.24997   0.24998   0.25000   0.25000   0.25000
     Eigenvalues ---    0.25255   0.26423   0.35740   0.35912   0.37137
     Eigenvalues ---    0.37230   0.37230   0.37230   0.37236   0.37954
     Eigenvalues ---    0.40797   0.40989   0.40989   0.43589   0.80209
     Eigenvalues ---    0.88363   0.93613
 RFO step:  Lambda=-3.60213106D-03 EMin= 7.21141161D-03
 Quartic linear search produced a step of  0.34834.
 Iteration  1 RMS(Cart)=  0.14150839 RMS(Int)=  0.02087948
 Iteration  2 RMS(Cart)=  0.04865708 RMS(Int)=  0.00160893
 Iteration  3 RMS(Cart)=  0.00204654 RMS(Int)=  0.00127749
 Iteration  4 RMS(Cart)=  0.00000099 RMS(Int)=  0.00127749
 Variable       Old X    -DE/DX   Delta X   Delta X   Delta X     New X
                                 (Linear)    (Quad)   (Total)
    R1        2.34156  -0.00926   0.00205  -0.01350  -0.01145   2.33011
    R2        2.78511   0.00202   0.01125   0.00359   0.01484   2.79994
    R3        2.78511   0.00202   0.01125   0.00359   0.01484   2.79994
    R4        2.26041   0.00990  -0.00655   0.01522   0.00867   2.26908
    R5        2.57658   0.00080  -0.01518   0.00466  -0.01052   2.56606
    R6        2.26041   0.00990  -0.00655   0.01522   0.00867   2.26908
    R7        2.57658   0.00080  -0.01518   0.00466  -0.01052   2.56606
    R8        2.75241   0.00196   0.00025   0.00716   0.00740   2.75982
    R9        2.75241   0.00196   0.00025   0.00716   0.00740   2.75982
   R10        2.07422   0.00041   0.00693   0.00029   0.00722   2.08144
   R11        2.07284  -0.00117   0.00410  -0.00424  -0.00014   2.07270
   R12        2.07628  -0.00192   0.00401  -0.00667  -0.00266   2.07363
   R13        2.07422   0.00041   0.00693   0.00029   0.00722   2.08144
   R14        2.07628  -0.00192   0.00401  -0.00667  -0.00266   2.07363
   R15        2.07284  -0.00117   0.00410  -0.00424  -0.00014   2.07270
    A1        2.11212  -0.00271   0.00720  -0.01587  -0.00866   2.10346
    A2        2.11212  -0.00271   0.00720  -0.01587  -0.00866   2.10346
    A3        2.11122  -0.00074   0.00393  -0.00362  -0.00322   2.10800
    A4        1.98552  -0.00394  -0.02095  -0.01407  -0.03860   1.94692
    A5        2.18621   0.00471   0.01711   0.02119   0.03462   2.22083
    A6        2.11122  -0.00074   0.00393  -0.00362  -0.00322   2.10800
    A7        1.98552  -0.00394  -0.02095  -0.01406  -0.03860   1.94692
    A8        2.18621   0.00471   0.01711   0.02119   0.03462   2.22082
    A9        2.02863   0.00292   0.01078   0.01373   0.02451   2.05313
   A10        2.02863   0.00292   0.01078   0.01373   0.02451   2.05313
   A11        1.77729   0.00046  -0.01677   0.00773  -0.00924   1.76805
   A12        1.91364  -0.00016  -0.00608   0.00071  -0.00552   1.90812
   A13        1.92695  -0.00088  -0.00450  -0.00544  -0.01009   1.91686
   A14        1.94623   0.00023   0.00952   0.00041   0.00971   1.95593
   A15        1.94514   0.00027   0.00926   0.00013   0.00916   1.95431
   A16        1.94756   0.00007   0.00695  -0.00278   0.00403   1.95160
   A17        1.77729   0.00046  -0.01677   0.00773  -0.00924   1.76805
   A18        1.92695  -0.00088  -0.00450  -0.00544  -0.01009   1.91686
   A19        1.91364  -0.00016  -0.00608   0.00071  -0.00552   1.90812
   A20        1.94514   0.00027   0.00926   0.00013   0.00916   1.95431
   A21        1.94623   0.00023   0.00952   0.00041   0.00971   1.95593
   A22        1.94756   0.00007   0.00695  -0.00278   0.00403   1.95160
    D1       -3.14159   0.00000   0.00000   0.00000   0.00000   3.14159
    D2       -3.08797   0.00191   0.00679   0.18832   0.19398  -2.89399
    D3        0.07573   0.00026   0.02575   0.02336   0.05025   0.12598
    D4        3.08798  -0.00191  -0.00679  -0.18833  -0.19399   2.89399
    D5       -0.07573  -0.00026  -0.02575  -0.02335  -0.05023  -0.12596
    D6        2.90481   0.00350   0.06579   0.23241   0.29885  -3.07953
    D7       -0.21357   0.00186   0.08539   0.05957   0.14432  -0.06925
    D8       -2.90481  -0.00350  -0.06579  -0.23242  -0.29886   3.07951
    D9        0.21356  -0.00186  -0.08539  -0.05956  -0.14431   0.06926
   D10       -3.13620   0.00011   0.00140   0.00185   0.00326  -3.13294
   D11       -1.06868   0.00029   0.00072   0.00375   0.00455  -1.06413
   D12        1.08400  -0.00032   0.00226  -0.00293  -0.00077   1.08324
   D13        3.13620  -0.00011  -0.00140  -0.00185  -0.00326   3.13294
   D14       -1.08400   0.00032  -0.00226   0.00293   0.00077  -1.08324
   D15        1.06868  -0.00029  -0.00072  -0.00375  -0.00455   1.06413
         Item               Value     Threshold  Converged?
 Maximum Force            0.009900     0.000450     NO 
 RMS     Force            0.002971     0.000300     NO 
 Maximum Displacement     0.423863     0.001800     NO 
 RMS     Displacement     0.183792     0.001200     NO 
 Predicted change in Energy=-2.848128D-03
 GradGradGradGradGradGradGradGradGradGradGradGradGradGradGradGradGradGrad

                          Input orientation:                          
 ---------------------------------------------------------------------
 Center     Atomic      Atomic             Coordinates (Angstroms)
 Number     Number       Type             X           Y           Z
 ---------------------------------------------------------------------
      1          7           0       -1.199983    0.736145   -0.507131
      2          7           0       -0.653113    0.297268    0.507121
      3          6           0       -2.581628    0.328163   -0.853450
      4          6           0        0.728533    0.705248    0.853438
      5          8           0        1.175759    0.493556    1.947498
      6          8           0       -3.028854    0.539855   -1.947508
      7          8           0        1.294371    1.441487   -0.137358
      8          8           0       -3.147476   -0.408054    0.137357
      9          6           0       -4.483641   -0.948243   -0.098701
     10          1           0       -4.668011   -1.487651    0.843764
     11          1           0       -5.188989   -0.121109   -0.244862
     12          1           0       -4.464272   -1.625115   -0.962165
     13          6           0        2.630527    1.981693    0.098708
     14          1           0        2.814890    2.521117   -0.843750
     15          1           0        2.611148    2.658552    0.962182
     16          1           0        3.335888    1.154567    0.244857
 ---------------------------------------------------------------------
                    Distance matrix (angstroms):
                    1          2          3          4          5
     1  N    0.000000
     2  N    1.233039   0.000000
     3  C    1.481665   2.360355   0.000000
     4  C    2.360355   1.481665   3.743371   0.000000
     5  O    3.424646   2.336233   4.689415   1.200745   0.000000
     6  O    2.336234   3.424646   1.200745   4.689416   5.731665
     7  O    2.618404   2.348890   4.095808   1.357902   2.293309
     8  O    2.348890   2.618406   1.357902   4.095810   4.772826
     9  C    3.713002   4.073237   2.411744   5.550438   6.188256
    10  H    4.335598   4.406662   3.245105   5.825083   6.268417
    11  H    4.088501   4.616783   2.714877   6.075048   6.759754
    12  H    4.054404   4.514343   2.715043   5.974298   6.690654
    13  C    4.073234   3.713001   5.550435   2.411744   2.783689
    14  H    4.406658   4.335597   5.825079   3.245105   3.819530
    15  H    4.514338   4.054398   5.974292   2.715044   2.778201
    16  H    4.616783   4.088505   6.075049   2.714877   2.828794
                    6          7          8          9         10
     6  O    0.000000
     7  O    4.772825   0.000000
     8  O    2.293309   4.819364   0.000000
     9  C    2.783690   6.252817   1.460433   0.000000
    10  H    3.819531   6.715091   1.994133   1.101451   0.000000
    11  H    2.828792   6.669874   2.096713   1.096827   1.823173
    12  H    2.778205   6.576193   2.103364   1.097315   1.822577
    13  C    6.188255   1.460433   6.252816   7.696420   8.115424
    14  H    6.268415   1.994133   6.715089   8.115424   8.655156
    15  H    6.690650   2.103364   6.576182   8.029351   8.378018
    16  H    6.759754   2.096713   6.669884   8.104620   8.449994
                   11         12         13         14         15
    11  H    0.000000
    12  H    1.817078   0.000000
    13  C    8.104607   8.029364   0.000000
    14  H    8.449976   8.378034   1.101451   0.000000
    15  H    8.368131   8.492025   1.097315   1.822577   0.000000
    16  H    8.633696   8.368155   1.096827   1.823173   1.817078
                   16
    16  H    0.000000
 Stoichiometry    C4H6N2O4
 Framework group  C1[X(C4H6N2O4)]
 Deg. of freedom    42
 Full point group                 C1      NOp   1
 Largest Abelian subgroup         C1      NOp   1
 Largest concise Abelian subgroup C1      NOp   1
                         Standard orientation:                         
 ---------------------------------------------------------------------
 Center     Atomic      Atomic             Coordinates (Angstroms)
 Number     Number       Type             X           Y           Z
 ---------------------------------------------------------------------
      1          7           0       -0.292182    0.537794    0.074175
      2          7           0        0.292183   -0.537795   -0.074190
      3          6           0       -1.772692    0.596238    0.072570
      4          6           0        1.772693   -0.596238   -0.072587
      5          8           0        2.346103   -1.645403    0.038070
      6          8           0       -2.346102    1.645403   -0.038087
      7          8           0        2.320879    0.645945   -0.053331
      8          8           0       -2.320879   -0.645945    0.053341
      9          6           0       -3.775642   -0.743172   -0.030775
     10          1           0       -3.918987   -1.835237   -0.037226
     11          1           0       -4.222590   -0.274127    0.854246
     12          1           0       -4.126680   -0.277485   -0.960296
     13          6           0        3.775640    0.743173    0.030804
     14          1           0        3.918984    1.835237    0.037274
     15          1           0        4.126667    0.277470    0.960321
     16          1           0        4.222600    0.274142   -0.854219
 ---------------------------------------------------------------------
 Rotational constants (GHZ):      3.6040025      0.5783628      0.5021185
 Standard basis: VSTO-6G (5D, 7F)
 There are    46 symmetry adapted cartesian basis functions of A   symmetry.
 There are    46 symmetry adapted basis functions of A   symmetry.
    46 basis functions,   276 primitive gaussians,    46 cartesian basis functions
    28 alpha electrons       28 beta electrons
       nuclear repulsion energy       319.7898879185 Hartrees.
 Integral buffers will be    131072 words long.
 Regular integral format.
 Two-electron integral symmetry is turned off.
 Nuclear repulsion after empirical dispersion term =      319.7875286478 Hartrees.
 ------------------------------------------------------------------------------
 Polarizable Continuum Model (PCM)
 =================================
 Model                : C-PCM.
 Atomic radii         : UFF (Universal Force Field).
 Polarization charges : Total charges.
 Charge compensation  : None.
 Solution method      : On-the-fly selection.
 Cavity type          : Scaled VdW (van der Waals Surface) (Alpha=1.100).
 Cavity algorithm     : GePol (No added spheres)
                        Default sphere list used, NSphG=   16.
                        Lebedev-Laikov grids with approx.  5.0 points / Ang**2.
                        Smoothing algorithm: Karplus/York (Gamma=1.0000).
                        Polarization charges: spherical gaussians, with
                                              point-specific exponents (IZeta= 3).
                        Self-potential: point-specific (ISelfS= 7).
                        Self-field    : sphere-specific E.n sum rule (ISelfD= 2).
 1st derivatives      : Analytical E(r).r(x)/FMM algorithm (CHGder, D1EAlg=3).
                        Cavity 1st derivative terms included.
 Solvent              : Toluene, Eps=   2.374100 Eps(inf)=   2.238315
 ------------------------------------------------------------------------------
 Spheres list:
 ISph  on   Nord     Re0    Alpha      Xe            Ye            Ze
    1   N      1    1.8300  1.100     -0.292182      0.537794      0.074175
    2   N      2    1.8300  1.100      0.292183     -0.537795     -0.074190
    3   C      3    1.9255  1.100     -1.772692      0.596238      0.072570
    4   C      4    1.9255  1.100      1.772693     -0.596238     -0.072587
    5   O      5    1.7500  1.100      2.346103     -1.645403      0.038070
    6   O      6    1.7500  1.100     -2.346102      1.645403     -0.038087
    7   O      7    1.7500  1.100      2.320879      0.645945     -0.053331
    8   O      8    1.7500  1.100     -2.320879     -0.645945      0.053341
    9   C      9    1.9255  1.100     -3.775642     -0.743172     -0.030775
   10   H     10    1.4430  1.100     -3.918987     -1.835237     -0.037226
   11   H     11    1.4430  1.100     -4.222590     -0.274127      0.854246
   12   H     12    1.4430  1.100     -4.126680     -0.277485     -0.960296
   13   C     13    1.9255  1.100      3.775640      0.743173      0.030804
   14   H     14    1.4430  1.100      3.918984      1.835237      0.037274
   15   H     15    1.4430  1.100      4.126667      0.277470      0.960321
   16   H     16    1.4430  1.100      4.222600      0.274142     -0.854219
 ------------------------------------------------------------------------------
 Do NDO integrals.
 One-electron integrals computed using PRISM.
 NBasis=    46 RedAO= F EigKep=  0.00D+00  NBF=    46
 NBsUse=    46 1.00D-04 EigRej=  0.00D+00 NBFU=    46
 Initial guess from the checkpoint file:  "dmad_cycloaddition_PM6_toluene.chk"
 B after Tr=     0.000000    0.000000    0.000000
         Rot=    0.999979    0.006332    0.001449    0.000096 Ang=   0.74 deg.
 Overlap will be assumed to be unity.
 Keep J ints in memory in canonical form, NReq=5755755.
 Requested convergence on RMS density matrix=1.00D-08 within 128 cycles.
 Requested convergence on MAX density matrix=1.00D-06.
 Requested convergence on             energy=1.00D-06.
 No special actions if energy rises.
 Inv3:  Mode=1 IEnd=     7451328.
 Iteration    1 A*A^-1 deviation from unit magnitude is 4.88D-15 for   1561.
 Iteration    1 A*A^-1 deviation from orthogonality  is 1.64D-15 for   1548    510.
 Iteration    1 A^-1*A deviation from unit magnitude is 4.44D-15 for   1561.
 Iteration    1 A^-1*A deviation from orthogonality  is 1.97D-15 for   1321    606.
 Error on total polarization charges = -0.00030
 SCF Done:  E(RPM6D3) = -0.173541442059     A.U. after   14 cycles
            NFock= 13  Conv=0.70D-08     -V/T= 0.9946
 D1PCM: C-PCM CHGder 1st derivatives, ID1Alg=3 FixD1E=F DoIter=F DoCFld=F I1PDM=0.
 Calling FoFJK, ICntrl=      2127 FMM=F ISym2X=0 I1Cent= 0 IOpClX= 0 NMat=1 NMatS=1 NMatT=0.
 ***** Axes restored to original set *****
 -------------------------------------------------------------------
 Center     Atomic                   Forces (Hartrees/Bohr)
 Number     Number              X              Y              Z
 -------------------------------------------------------------------
      1        7          -0.001114848    0.005970491   -0.000147412
      2        7           0.001115026   -0.005971324    0.000146935
      3        6           0.005404285   -0.013009752   -0.004293074
[...]
 ! A12   A(8,9,11)             109.6454         -DE/DX =    0.0                 !
 ! A13   A(8,9,12)             109.8563         -DE/DX =    0.0                 !
 ! A14   A(10,9,11)            111.7863         -DE/DX =    0.0                 !
 ! A15   A(10,9,12)            111.7757         -DE/DX =    0.0                 !
 ! A16   A(11,9,12)            111.684          -DE/DX =    0.0                 !
 ! A17   A(7,13,14)            101.6308         -DE/DX =    0.0                 !
 ! A18   A(7,13,15)            109.8564         -DE/DX =    0.0                 !
 ! A19   A(7,13,16)            109.6454         -DE/DX =    0.0                 !
 ! A20   A(14,13,15)           111.7757         -DE/DX =    0.0                 !
 ! A21   A(14,13,16)           111.7863         -DE/DX =    0.0                 !
 ! A22   A(15,13,16)           111.684          -DE/DX =    0.0                 !
 ! D1    D(3,1,2,4)           -179.9968         -DE/DX =    0.0                 !
 ! D2    D(2,1,3,6)           -108.8513         -DE/DX =    0.0                 !
 ! D3    D(2,1,3,8)             78.4116         -DE/DX =    0.0                 !
 ! D4    D(1,2,4,5)            108.8517         -DE/DX =    0.0                 !
 ! D5    D(1,2,4,7)            -78.408          -DE/DX =    0.0                 !
 ! D6    D(1,3,8,9)            169.8473         -DE/DX =    0.0                 !
 ! D7    D(6,3,8,9)             -2.5168         -DE/DX =    0.0                 !
 ! D8    D(2,4,7,13)          -169.849          -DE/DX =    0.0                 !
 ! D9    D(5,4,7,13)             2.5185         -DE/DX =    0.0                 !
 ! D10   D(4,7,13,14)         -178.4323         -DE/DX =    0.0                 !
 ! D11   D(4,7,13,15)          -59.9411         -DE/DX =    0.0                 !
 ! D12   D(4,7,13,16)           63.1547         -DE/DX =    0.0                 !
 ! D13   D(3,8,9,10)           178.4324         -DE/DX =    0.0                 !
 ! D14   D(3,8,9,11)           -63.1547         -DE/DX =    0.0                 !
 ! D15   D(3,8,9,12)            59.9411         -DE/DX =    0.0                 !
 --------------------------------------------------------------------------------
 GradGradGradGradGradGradGradGradGradGradGradGradGradGradGradGradGradGrad

 1\1\GINC-D8S2B1\Freq\RPM6\ZDO\C4H6N2O4\CHMKSH\06-Sep-2020\0\\#N Geom=A
 llCheck Guess=TCheck SCRF=Check GenChk RPM6/ZDO Freq\\Title Card Requi
 red\\0,1\N,-1.4319556458,0.8497123218,-0.1099947581\N,-0.4210890504,0.
 1836442023,0.1098566009\C,-2.6141407732,0.2280292762,-0.7272777529\C,0
 .7610709278,0.8053097816,0.7272045361\O,1.1204340377,0.5835323302,1.85
 25546381\O,-2.9735242383,0.449759147,-1.8526299339\O,1.4206471783,1.50
 69551362,-0.2330492435\O,-3.2737428405,-0.4735010079,0.2330438827\C,-4
 .5989869494,-0.9777526299,-0.1219336191\H,-4.8842946695,-1.5139460756,
 0.7931290916\H,-5.2698575124,-0.137426367,-0.3262695745\H,-4.522413453
 6,-1.6522615519,-0.9807092973\C,2.7458553705,2.0112525077,0.1219954095
 \H,3.0311482342,2.5475370971,-0.7930184376\H,2.6692274306,2.6856865811
 ,0.9808250593\H,3.4167699341,1.1709474711,0.3262743485\\Version=ES64L-
 G09RevD.01\State=1-A\HF=-0.1835139\RMSD=3.628e-10\RMSF=2.620e-05\ZeroP
 oint=0.1023347\Thermal=0.1140989\Dipole=-0.0000027,0.0000581,0.0000721
 \DipoleDeriv=-0.5989083,-0.2191543,-0.1588257,-0.0857668,-0.1550007,0.
 0425672,-0.0857249,0.0361446,-0.3788276,-0.5989471,-0.2191751,-0.15881
 45,-0.0857204,-0.1550112,0.0425934,-0.0857072,0.0361605,-0.3788097,2.2
 609363,0.6894048,0.3480045,0.5328996,1.0931158,-0.6107807,0.0119585,-0
 .6574115,2.556493,2.2608856,0.6894213,0.3480373,0.5329673,1.0932687,-0
 .6108609,0.0120093,-0.6575202,2.556398,-0.9583664,-0.082793,-0.4103915
 ,-0.0594023,-0.5460554,0.215859,-0.285513,0.2277115,-1.5496604,-0.9583
 881,-0.0828091,-0.4104083,-0.0593877,-0.5460196,0.2158306,-0.2855063,0
 .2276379,-1.5496914,-1.4095988,-0.5498836,0.1822427,-0.5097045,-0.7468
 005,0.2924559,0.1272072,0.2528815,-0.8639706,-1.4096579,-0.5498495,0.1
 822979,-0.5096501,-0.7467073,0.2924334,0.127261,0.252875,-0.864017,0.3
 607914,0.2797231,0.1030109,0.2173491,-0.2529732,0.0836116,0.3588831,0.
 1916728,-0.3891374,0.0572013,-0.0425665,-0.0536663,-0.0070707,0.217527
 5,-0.0500694,-0.1489129,-0.0908513,0.2551239,0.1964082,-0.0779255,-0.0
 158185,-0.1067314,0.1609379,-0.0153673,-0.0046598,-0.0166154,0.1635991
 ,0.0916184,0.0031684,0.0054254,0.0183377,0.2290986,0.0417653,0.0267034
 ,0.0565374,0.2064334,0.3607461,0.2797394,0.1030391,0.2173491,-0.252971
 9,0.0836309,0.3589019,0.1917035,-0.3891136,0.0572095,-0.0425681,-0.053
 6691,-0.0070667,0.2175359,-0.0500759,-0.1489111,-0.0908617,0.2551107,0
 .0916153,0.0031579,0.0054203,0.0183269,0.2290908,0.0417668,0.0267006,0
 .0565408,0.2064416,0.1964209,-0.0779226,-0.0158243,-0.1067276,0.160930
 9,-0.0153693,-0.0046676,-0.0166175,0.1635963\Polar=116.2103896,26.7382
 313,44.7745704,25.479547,-12.5391854,82.3784378\HyperPolar=-0.0126572,
 -0.0077092,-0.0120138,-0.0098468,-0.006538,0.0054692,0.0054395,0.01069
 65,0.0073396,-0.0000139\PG=C01 [X(C4H6N2O4)]\NImag=0\\0.85947688,-0.26
 988462,0.38301945,0.23918806,-0.02974182,0.13865957,-0.58824785,0.3673
 2403,-0.13786351,0.85947031,0.36732399,-0.30346470,0.05830088,-0.26988
 438,0.38302187,-0.13786202,0.05830160,-0.01714932,0.23919495,-0.029739
 88,0.13866501,-0.12933273,-0.04347083,-0.04543695,-0.06513578,-0.00835
 490,-0.01766963,0.44931054,-0.06705718,-0.10417516,-0.04458298,0.01445
 457,0.02421084,0.01508539,0.09065654,0.28213393,-0.04780038,-0.0412904
 1,-0.06425735,-0.01614750,0.01168277,-0.02221658,0.17798578,-0.1680171
 6,0.87780674,-0.06513559,-0.00835433,-0.01766841,-0.12932936,-0.043469
 74,-0.04544188,-0.01183328,0.00163035,-0.01323081,0.44929345,0.0144556
 3,0.02421060,0.01508508,-0.06705575,-0.10417260,-0.04458464,0.00162988
 ,-0.00755053,-0.00768106,0.09065925,0.28216653,-0.01614952,0.01168247,
 -0.02221718,-0.04780498,-0.04129427,-0.06426290,-0.01322968,-0.0076804
 8,0.01506281,0.17798854,-0.16804649,0.87779180,-0.00081819,0.00063000,
 -0.00828153,-0.02626418,-0.00826623,-0.04039728,0.00284885,-0.00021433
 ,0.00624047,-0.10663416,0.04315466,-0.19438538,0.12160722,-0.00292871,
 -0.00464260,-0.00188309,-0.00420633,0.01910599,-0.00387500,-0.00062934
 ,0.00107019,0.00120144,0.04504026,-0.07641833,0.11566753,-0.02881084,0
 .06513138,-0.00091640,-0.00152793,-0.00594423,-0.04724677,-0.00698826,
 -0.04017748,0.00388158,0.00131300,0.00315309,-0.19885603,0.11211822,-0
 .64774273,0.22874501,-0.15462047,0.78417341,-0.02626704,-0.00826881,-0
 .04039845,-0.00081842,0.00063043,-0.00828120,-0.10664092,0.04314879,-0
 .19439828,0.00284862,-0.00021433,0.00624039,-0.00106341,-0.00003927,-0
 .00148681,0.12161713,-0.00420832,0.01910647,-0.00387664,-0.00292846,-0
 .00464287,-0.00188343,0.04503344,-0.07640886,0.11564264,-0.00062946,0.
 00107018,0.00120150,-0.00003924,-0.00010570,-0.00036739,-0.02880356,0.
 06511428,-0.04724778,-0.00699175,-0.04017546,-0.00091649,-0.00152716,-
 0.00594361,-0.19886999,0.11209532,-0.64774734,0.00388129,0.00131303,0.
 00315283,-0.00148674,-0.00036741,-0.00104978,0.22875871,-0.15458751,0.
 78418333,-0.00649344,-0.00164789,0.00493514,-0.04565219,-0.03515117,0.
 00558173,0.00741890,0.00130443,-0.00009507,-0.09682306,-0.05358471,0.0
 6436149,0.01367653,-0.01032996,0.02368196,-0.00338986,-0.00011635,-0.0
 0315400,0.37944172,-0.00107942,-0.00070359,0.00068235,-0.03377778,-0.0
 1579705,0.00220994,0.00214335,0.00035714,0.00096618,-0.05506063,-0.097
 84883,0.08434920,-0.00546871,-0.00336422,0.05246218,-0.00096767,0.0000
 4774,-0.00112416,0.17201211,0.18061347,-0.00254299,-0.00275180,0.00269
 100,0.00820871,0.00733621,0.01201735,0.00219661,0.00108438,-0.00270168
 ,0.06735764,0.08579726,-0.17376520,0.00952056,0.04278185,-0.08825285,-
 0.00136180,-0.00027413,-0.00053617,-0.01632347,-0.11855625,0.32757487,
 -0.04565345,-0.03514847,0.00558567,-0.00649394,-0.00164814,0.00493549,
 -0.09682740,-0.05357746,0.06436802,0.00741937,0.00130477,-0.00009491,-
 0.00338995,-0.00011636,-0.00315426,0.01367661,-0.01032830,0.02368349,-
 0.00228715,-0.00080067,-0.00045925,0.37945692,-0.03377512,-0.01579351,
 0.00221235,-0.00107944,-0.00070355,0.00068230,-0.05505361,-0.09782746,
 0.08433924,0.00214322,0.00035716,0.00096613,-0.00096759,0.00004775,-0.
 00112412,-0.00546772,-0.00335675,0.05245487,-0.00080057,-0.00014943,-0
 .00033372,0.17199664,0.18057434,0.00821278,0.00733926,0.01201683,-0.00
 254313,-0.00275210,0.00269082,0.06736478,0.08578599,-0.17378017,0.0021
 9652,0.00108455,-0.00270167,-0.00136172,-0.00027415,-0.00053614,0.0095
 2092,0.04277600,-0.08826046,-0.00045916,-0.00033373,0.00029058,-0.0163
 4372,-0.11854609,0.32759240,0.00205470,-0.00194857,-0.00108168,0.00055
 828,0.00111543,-0.00021906,-0.03815452,-0.02676421,0.03073822,-0.00120
 091,-0.00045004,-0.00006793,0.00056053,0.00006736,0.00047612,-0.001840
 32,0.00069955,-0.00469296,0.00046065,0.00016748,0.00008139,-0.16828608
 ,-0.04230662,-0.05788694,0.37709046,-0.00165043,0.00430276,0.00296033,
 -0.00146508,-0.00171119,0.00028680,-0.02571649,-0.02257625,0.00790737,
 0.00020627,0.00046191,-0.00041302,-0.00028949,-0.00008427,-0.00028365,
 -0.00143509,-0.00069604,-0.00102773,0.00005772,0.00002000,-0.00001223,
 -0.03782412,-0.04820955,-0.01299091,-0.00878503,0.39357659,0.00406049,
 0.00519195,-0.00151942,0.00180672,0.00000623,-0.00204496,0.02509237,0.
 00558193,0.01123084,-0.00257490,-0.00024996,-0.00002530,0.00120057,-0.
 00002033,0.00117043,0.00187761,0.00181377,-0.00310452,0.00075048,0.000
 23802,0.00021396,-0.06765498,-0.01748516,-0.07317240,0.00093164,-0.009
 32039,0.41809733,-0.00088820,-0.00063682,0.00082598,-0.00044748,-0.000
 24302,0.00060230,-0.00628664,-0.00203883,-0.00373489,0.00056760,0.0000
 9765,-0.00013999,-0.00028489,0.00000244,-0.00025879,0.00091900,0.00044
 363,0.00014611,-0.00012072,-0.00003641,-0.00002815,-0.02243584,-0.0224
 4432,0.02343733,-0.04190226,-0.01841623,0.03341268,0.06267241,-0.00018
 629,-0.00004319,0.00023301,-0.00004881,-0.00014241,0.00017033,-0.00317
 541,-0.00108205,-0.00023378,-0.00006024,0.00003858,-0.00014930,0.00001
 031,-0.00002094,0.00001942,0.00046294,0.00026808,-0.00035033,0.0000573
 1,0.00000118,0.00002446,-0.01579335,-0.00947864,0.01048560,-0.02107248
 ,-0.07567158,0.07253627,0.03686589,0.09025929,-0.00050558,-0.00046231,
 0.00045123,-0.00051762,0.00000995,0.00026484,-0.00021110,0.00108745,-0
 .00332118,0.00083058,0.00009984,0.00023118,-0.00035405,0.00000695,-0.0
 0038997,0.00005207,-0.00025036,0.00087848,-0.00028049,-0.00008523,-0.0
 0009971,0.00755398,0.00276742,0.00531223,0.03968422,0.07562211,-0.1635
 4098,-0.05074031,-0.09185775,0.18695006,0.00051675,-0.00057273,-0.0004
 8629,0.00049203,0.00023431,-0.00002487,-0.00433454,0.00148239,0.000075
 23,-0.00040490,-0.00016234,-0.00006185,0.00019954,0.00003165,0.0001911
 1,0.00026641,0.00046170,-0.00050550,0.00015802,0.00006421,0.00003947,-
 0.03907124,0.01051972,-0.01065294,-0.09532321,0.08079486,-0.01777271,0
 .00506374,0.00056948,-0.00110043,0.13211612,0.00003571,-0.00066943,0.0
 0000637,-0.00009777,0.00019247,0.00012542,-0.00006210,0.00368233,-0.00
 301714,0.00039461,0.00003899,0.00006575,-0.00013735,-0.00000944,-0.000
 11126,0.00045220,-0.00045366,0.00050028,-0.00014612,-0.00006736,-0.000
 01736,-0.00677445,0.00435898,0.00060289,0.08996089,-0.14714717,0.02756
 556,0.00677688,-0.01144281,0.00838236,-0.10142352,0.16671717,-0.000031
 87,-0.00000951,-0.00022256,-0.00000269,0.00003837,-0.00007667,0.001494
 25,-0.00026659,0.00229512,0.00001596,-0.00002931,0.00013357,-0.0000064
 8,0.00000882,-0.00005292,-0.00090574,0.00012513,-0.00079554,-0.0000216
 5,0.00000266,-0.00003690,-0.00986994,0.00266105,-0.00058926,-0.0192831
 3,0.02545254,-0.04041396,-0.00891792,0.01811243,-0.00500360,0.02838548
 ,-0.03129128,0.04170866,0.00019098,0.00112008,0.00042715,-0.00000560,-
 0.00024766,-0.00010296,0.00008797,-0.00257453,-0.00366560,-0.00008002,
 0.00006550,-0.00006912,0.00002506,-0.00001474,0.00003925,0.00019176,0.
 00032864,-0.00004202,0.00004149,0.00001408,0.00001603,-0.01664826,-0.0
 2297514,-0.02159174,-0.03390658,0.01451132,0.01904353,0.00311284,0.002
 38388,0.00552604,0.00036000,0.01099588,0.00914113,0.04663978,0.0003398
 1,0.00068888,0.00011390,0.00022664,-0.00017427,-0.00009205,-0.00307799
 ,-0.00236451,-0.00084366,-0.00046394,-0.00000668,-0.00015922,0.0001932
 5,-0.00001572,0.00018127,0.00072580,0.00018623,-0.00019406,0.00019684,
 0.00004776,0.00005294,-0.01145585,-0.00982258,-0.01322534,0.00932993,-
 0.10225943,-0.08580473,-0.00038060,0.00730697,0.00466533,0.00800931,-0
 .01521160,-0.01480241,-0.00360132,0.12162274,0.00009749,0.00023643,-0.
 00031396,0.00021098,-0.00003084,-0.00016305,-0.00052133,-0.00122304,0.
 00407688,-0.00034780,-0.00008323,0.00006300,0.00013958,0.00001554,0.00
 007562,-0.00059708,-0.00033058,-0.00140677,0.00011945,0.00004864,-0.00
 001175,-0.00911736,-0.00879867,-0.00892898,0.01143198,-0.08816052,-0.1
 4669478,0.00536692,-0.00897621,-0.02180987,0.00195362,-0.00285025,0.00
 304305,-0.00870985,0.11015689,0.17209408,0.00055827,0.00111558,-0.0002
 1909,0.00205479,-0.00194896,-0.00108177,-0.00120082,-0.00045001,-0.000
 06785,-0.03815280,-0.02676791,0.03073468,-0.00184023,0.00069971,-0.004
 69284,0.00056052,0.00006737,0.00047608,-0.16828077,-0.04230852,-0.0578
 9142,0.00046064,0.00016745,0.00008137,-0.00009168,0.00000430,-0.000153
 61,0.00002469,-0.00000893,0.00005776,-0.00003622,0.00002678,0.00000486
 ,-0.00000891,-0.00003505,-0.00002091,0.37709321,-0.00146523,-0.0017110
 8,0.00028709,-0.00165077,0.00430197,0.00296046,0.00020640,0.00046188,-
 0.00041311,-0.02572002,-0.02258000,0.00790605,-0.00143528,-0.00069618,
 -0.00102791,-0.00028957,-0.00008427,-0.00028370,-0.03782538,-0.0482127
 8,-0.01299296,0.00005769,0.00001999,-0.00001224,0.00000431,0.00000060,
 -0.00002229,0.00000669,-0.00000154,0.00000373,0.00000297,-0.00000292,-
 0.00000142,-0.00000261,-0.00000173,-0.00000075,-0.00878530,0.39357804,
 0.00180634,0.00000595,-0.00204482,0.00406066,0.00519312,-0.00151872,-0
 .00257475,-0.00024984,-0.00002529,0.02508883,0.00557981,0.01123301,0.0
 0187751,0.00181411,-0.00310455,0.00120053,-0.00002034,0.00117032,-0.06
 765909,-0.01748779,-0.07317724,0.00075050,0.00023799,0.00021393,-0.000
 15362,-0.00002230,-0.00024764,0.00004290,-0.00001668,0.00008938,-0.000
 05092,0.00005080,0.00000452,-0.00001237,-0.00006492,-0.00004267,0.0009
 3057,-0.00932246,0.41809587,-0.00044741,-0.00024296,0.00060228,-0.0008
 8827,-0.00063706,0.00082585,0.00056755,0.00009762,-0.00014002,-0.00628
 624,-0.00203876,-0.00373505,0.00091893,0.00044366,0.00014615,-0.000284
 88,0.00000244,-0.00025876,-0.02243436,-0.02244727,0.02343438,-0.000120
 71,-0.00003641,-0.00002814,0.00002469,0.00000669,0.00004289,-0.0000064
 5,0.00000251,-0.00001752,0.00000961,-0.00001066,-0.00000251,0.00000228
 ,0.00001107,0.00000581,-0.04190123,-0.01841832,0.03340927,0.06267017,-
 0.00004878,-0.00014240,0.00017034,-0.00018632,-0.00004326,0.00023299,-
 0.00006028,0.00003857,-0.00014931,-0.00317570,-0.00108237,-0.00023385,
 0.00046298,0.00026818,-0.00035036,0.00001033,-0.00002094,0.00001943,-0
 .01579504,-0.00948200,0.01048548,0.00005733,0.00000119,0.00002447,-0.0
 0000894,-0.00000154,-0.00001669,0.00000251,0.00000280,0.00000502,-0.00
 000504,0.00000553,-0.00000063,-0.00000182,0.00000050,-0.00000198,-0.02
 107506,-0.07568610,0.07254503,0.03687028,0.09027877,-0.00051759,0.0000
 0995,0.00026485,-0.00050568,-0.00046244,0.00045123,0.00083057,0.000099
 82,0.00023115,-0.00021145,0.00108763,-0.00332121,0.00005212,-0.0002503
 9,0.00087846,-0.00035405,0.00000695,-0.00038995,0.00755212,0.00276623,
 0.00531388,-0.00028049,-0.00008522,-0.00009970,0.00005776,0.00000373,0
 .00008938,-0.00001752,0.00000502,-0.00003021,0.00001838,-0.00001706,0.
 00000069,0.00000399,0.00002238,0.00001743,0.03968035,0.07563127,-0.163
 52755,-0.05073436,-0.09186797,0.18693317,-0.00000565,-0.00024766,-0.00
 010291,0.00019095,0.00112006,0.00042720,-0.00007996,0.00006550,-0.0000
 6912,0.00008831,-0.00257402,-0.00366577,0.00019176,0.00032868,-0.00004
 201,0.00002503,-0.00001474,0.00003923,-0.01664560,-0.02297365,-0.02159
 310,0.00004147,0.00001407,0.00001603,-0.00000891,-0.00000261,-0.000012
 37,0.00000228,-0.00000182,0.00000399,-0.00000157,0.00000178,-0.0000006
 1,-0.00000076,-0.00000376,-0.00000287,-0.03390862,0.01451527,0.0190516
 9,0.00311250,0.00238339,0.00552646,0.04664052,0.00022659,-0.00017428,-
 0.00009202,0.00033982,0.00068896,0.00011399,-0.00046391,-0.00000667,-0
 .00015921,-0.00307783,-0.00236476,-0.00084446,0.00072588,0.00018632,-0
 .00019393,0.00019323,-0.00001572,0.00018125,-0.01145519,-0.00982275,-0
 .01322689,0.00019684,0.00004775,0.00005293,-0.00003505,-0.00000174,-0.
 00006492,0.00001107,0.00000051,0.00002238,-0.00001405,0.00001390,0.000
 00171,-0.00000376,-0.00001059,-0.00000798,0.00933449,-0.10224380,-0.08
 579985,-0.00038140,0.00730745,0.00466804,-0.00360697,0.12160432,0.0002
 1098,-0.00003087,-0.00016306,0.00009756,0.00023656,-0.00031393,-0.0003
 4785,-0.00008322,0.00006300,-0.00052162,-0.00122372,0.00407665,-0.0005
 9702,-0.00033052,-0.00140678,0.00013960,0.00001554,0.00007563,-0.00911
 801,-0.00879968,-0.00893138,0.00011947,0.00004864,-0.00001176,-0.00002
 092,-0.00000075,-0.00004268,0.00000581,-0.00000198,0.00001744,-0.00000
 849,0.00000652,0.00000378,-0.00000287,-0.00000798,-0.00000219,0.011439
 91,-0.08815590,-0.14670847,0.00536786,-0.00897346,-0.02181002,-0.00871
 868,0.11015223,0.17211176,0.00049203,0.00023430,-0.00002489,0.00051679
 ,-0.00057266,-0.00048628,-0.00040492,-0.00016232,-0.00006184,-0.004334
 72,0.00148180,0.00007545,0.00026639,0.00046178,-0.00050548,0.00019956,
 0.00003165,0.00019111,-0.03907113,0.01051829,-0.01065289,0.00015803,0.
 00006421,0.00003946,-0.00003622,0.00000297,-0.00005092,0.00000961,-0.0
 0000504,0.00001839,-0.00001056,0.00000728,0.00000084,-0.00000157,-0.00
 001406,-0.00000849,-0.09533221,0.08079872,-0.01776857,0.00506352,0.000
 57013,-0.00110069,0.00035869,0.00801031,0.00195439,0.13212672,-0.00009
 772,0.00019248,0.00012541,0.00003573,-0.00066949,0.00000636,0.00039458
 ,0.00003896,0.00006574,-0.00006275,0.00368253,-0.00301700,0.00045232,-
 0.00045366,0.00050031,-0.00013734,-0.00000943,-0.00011124,-0.00677605,
 0.00435905,0.00060253,-0.00014611,-0.00006735,-0.00001735,0.00002678,-
 0.00000292,0.00005080,-0.00001065,0.00000553,-0.00001706,0.00000727,-0
 .00000504,-0.00000141,0.00000178,0.00001390,0.00000652,0.08996486,-0.1
 4714188,0.02755742,0.00677843,-0.01144459,0.00838188,0.01099606,-0.015
 20904,-0.00285144,-0.10142716,0.16671090,-0.00000268,0.00003839,-0.000
 07667,-0.00003185,-0.00000955,-0.00022257,0.00001599,-0.00002930,0.000
 13358,0.00149417,-0.00026633,0.00229492,-0.00090569,0.00012511,-0.0007
 9554,-0.00000649,0.00000882,-0.00005292,-0.00987139,0.00266112,-0.0005
 8940,-0.00002166,0.00000265,-0.00003690,0.00000487,-0.00000142,0.00000
 452,-0.00000251,-0.00000063,0.00000069,0.00000084,-0.00000141,0.000001
 91,-0.00000061,0.00000171,0.00000378,-0.01927815,0.02544412,-0.0404102
 7,-0.00891822,0.01811138,-0.00500161,0.00914283,-0.01480323,0.00304180
 ,0.02838055,-0.03128126,0.04170457\\-0.00002948,-0.00003417,-0.0000047
 8,0.00003079,0.00003765,0.00000045,0.00000116,0.00003871,-0.00002832,-
 0.00000014,-0.00004416,0.00002931,0.00000583,0.00000521,-0.00002684,-0
 .00000485,-0.00000346,0.00002999,0.00004569,0.00002343,0.00001783,-0.0
 0004814,-0.00002261,-0.00001852,0.00007165,0.00003738,0.00002706,-0.00
 000514,-0.00000752,-0.00000620,-0.00000941,-0.00000277,0.00000325,-0.0
 0000878,-0.00000279,-0.00001399,-0.00007206,-0.00003771,-0.00002611,0.
 00000471,0.00000733,0.00000612,0.00000880,0.00000282,0.00001400,0.0000
 0937,0.00000266,-0.00000325\\\@


 AN OPTIMIST IS A GUY
 THAT HAS NEVER HAD
 MUCH EXPERIENCE
   (CERTAIN MAXIMS OF ARCHY  -- DON MARQUIS)
 Job cpu time:       0 days  0 hours  0 minutes 14.7 seconds.
 File lengths (MBytes):  RWF=     51 Int=      0 D2E=      0 Chk=      7 Scr=      1
 Normal termination of Gaussian 09 at Sun Sep  6 18:33:01 2020.
