 Entering Gaussian System, Link 0=g09
 Input=freq_TS_associated_cycloaddition_PM6_toluene_3.com
 Output=freq_TS_associated_cycloaddition_PM6_toluene_3.log
 Initial command:
 /apps/applications/gaussian/G09.D01/2/default/g09/l1.exe "/local/725904.1.40core-192G.q/Gau-189409.inp" -scrdir="/local/725904.1.40core-192G.q/"
 Entering Link 1 = /apps/applications/gaussian/G09.D01/2/default/g09/l1.exe PID=    189412.
  
 Copyright (c) 1988,1990,1992,1993,1995,1998,2003,2009,2013,
            Gaussian, Inc.  All Rights Reserved.
  
 This is part of the Gaussian(R) 09 program.  It is based on
 the Gaussian(R) 03 system (copyright 2003, Gaussian, Inc.),
 the Gaussian(R) 98 system (copyright 1998, Gaussian, Inc.),
 the Gaussian(R) 94 system (copyright 1995, Gaussian, Inc.),
 the Gaussian 92(TM) system (copyright 1992, Gaussian, Inc.),
 the Gaussian 90(TM) system (copyright 1990, Gaussian, Inc.),
 the Gaussian 88(TM) system (copyright 1988, Gaussian, Inc.),
 the Gaussian 86(TM) system (copyright 1986, Carnegie Mellon
 University), and the Gaussian 82(TM) system (copyright 1983,
 Carnegie Mellon University). Gaussian is a federally registered
 trademark of Gaussian, Inc.
  
 This software contains proprietary and confidential information,
 including trade secrets, belonging to Gaussian, Inc.
  
 This software is provided under written license and may be
 used, copied, transmitted, or stored only in accord with that
 written license.
  
 The following legend is applicable only to US Government
 contracts under FAR:
  
                    RESTRICTED RIGHTS LEGEND
  
 Use, reproduction and disclosure by the US Government is
 subject to restrictions as set forth in subparagraphs (a)
 and (c) of the Commercial Computer Software - Restricted
 Rights clause in FAR 52.227-19.
  
 Gaussian, Inc.
 340 Quinnipiac St., Bldg. 40, Wallingford CT 06492
  
  
 ---------------------------------------------------------------
 Warning -- This program may not be used in any manner that
 competes with the business of Gaussian, Inc. or will provide
 assistance to any competitor of Gaussian, Inc.  The licensee
 of this program is prohibited from giving any competitor of
 Gaussian, Inc. access to this program.  By using this program,
 the user acknowledges that Gaussian, Inc. is engaged in the
 business of creating and licensing software in the field of
 computational chemistry and represents and warrants to the
 licensee that it is not a competitor of Gaussian, Inc. and that
 it will not use this program in any manner prohibited above.
 ---------------------------------------------------------------
  

 Cite this work as:
 Gaussian 09, Revision D.01,
 M. J. Frisch, G. W. Trucks, H. B. Schlegel, G. E. Scuseria, 
 M. A. Robb, J. R. Cheeseman, G. Scalmani, V. Barone, B. Mennucci, 
 G. A. Petersson, H. Nakatsuji, M. Caricato, X. Li, H. P. Hratchian, 
 A. F. Izmaylov, J. Bloino, G. Zheng, J. L. Sonnenberg, M. Hada, 
 M. Ehara, K. Toyota, R. Fukuda, J. Hasegawa, M. Ishida, T. Nakajima, 
 Y. Honda, O. Kitao, H. Nakai, T. Vreven, J. A. Montgomery, Jr., 
 J. E. Peralta, F. Ogliaro, M. Bearpark, J. J. Heyd, E. Brothers, 
 K. N. Kudin, V. N. Staroverov, T. Keith, R. Kobayashi, J. Normand, 
 K. Raghavachari, A. Rendell, J. C. Burant, S. S. Iyengar, J. Tomasi, 
 M. Cossi, N. Rega, J. M. Millam, M. Klene, J. E. Knox, J. B. Cross, 
 V. Bakken, C. Adamo, J. Jaramillo, R. Gomperts, R. E. Stratmann, 
 O. Yazyev, A. J. Austin, R. Cammi, C. Pomelli, J. W. Ochterski, 
 R. L. Martin, K. Morokuma, V. G. Zakrzewski, G. A. Voth, 
 P. Salvador, J. J. Dannenberg, S. Dapprich, A. D. Daniels, 
 O. Farkas, J. B. Foresman, J. V. Ortiz, J. Cioslowski, 
 and D. J. Fox, Gaussian, Inc., Wallingford CT, 2013.
 
 ******************************************
 Gaussian 09:  ES64L-G09RevD.01 24-Apr-2013
                 7-Sep-2020 
 ******************************************
 %nprocshared=4
 Will use up to    4 processors via shared memory.
 %chk=freq_TS_associated_cycloaddition_PM6_toluene_3.chk
 ----------------------------------------------------------------------
 # freq pm6 scrf=(cpcm,solvent=toluene) geom=connectivity empiricaldisp
 ersion=gd3
 ----------------------------------------------------------------------
 1/10=4,30=1,38=1,57=2/1,3;
 2/12=2,17=6,18=5,40=1/2;
 3/5=2,16=1,25=1,41=3900000,70=2101,71=2,72=13,124=31,140=1/1,2,3;
 4/35=1/1;
 5/5=2,35=1,38=5,53=13,98=1/2;
 8/6=4,10=90,11=11/1;
 11/6=1,8=1,9=11,15=111,16=1/1,2,10;
 10/6=1/2;
 6/7=2,8=2,9=2,10=2,18=1,28=1/1;
 7/8=1,10=1,25=1/1,2,3,16;
 1/10=4,30=1/3;
 99//99;
 -------------------
 Title Card Required
 -------------------
 Symbolic Z-matrix:
 Charge =  0 Multiplicity = 1
 C                     0.48989   0.85263  -0.73315 
 C                     0.88896   1.65797   0.60604 
 C                    -1.41937   1.99989   0.33634 
 C                    -0.97774   1.28278  -0.95103 
 H                     1.13815   0.65014  -1.59189 
 H                    -1.62264   0.76749  -1.64098 
 C                    -0.39522   1.74189   1.4464 
 H                    -0.34696   2.56708   2.17786 
 H                    -0.607     0.82394   2.02513 
 C                     0.76527   2.6019   -0.51728 
 H                     1.55089   3.13033  -1.02443 
 C                    -0.71966   2.79365  -0.7879 
 H                    -1.1231    3.62403  -1.3337 
 H                     1.83345   1.4157    1.09647 
 H                    -2.45982   2.14061   0.59857 
 N                    -0.2716   -1.23554   0.70207 
 N                     0.46438  -0.90145  -0.30225 
 C                    -1.69844  -1.18817   0.59595 
 C                     1.85595  -1.36301  -0.13649 
 O                     2.21537  -2.49559  -0.3351 
 O                    -2.43814  -0.98953   1.53315 
 O                     2.69854  -0.30509   0.08357 
 O                    -2.14587  -1.50566  -0.66758 
 C                    -3.58338  -1.60964  -0.8536 
 H                    -3.66542  -1.87958  -1.91295 
 H                    -3.98498  -2.39534  -0.206 
 H                    -4.0528   -0.64433  -0.64267 
 C                     4.12781  -0.59731   0.07757 
 H                     4.35944  -1.31855   0.86803 
 H                     4.42216  -0.97746  -0.90548 
 H                     4.56559   0.38633   0.28379 
 

 GradGradGradGradGradGradGradGradGradGradGradGradGradGradGradGradGradGrad
 Berny optimization.
 Initialization pass.
 Trust Radius=3.00D-01 FncErr=1.00D-07 GrdErr=1.00D-07
 Number of steps in this run=      2 maximum allowed number of steps=      2.
 GradGradGradGradGradGradGradGradGradGradGradGradGradGradGradGradGradGrad

                          Input orientation:                          
 ---------------------------------------------------------------------
 Center     Atomic      Atomic             Coordinates (Angstroms)
 Number     Number       Type             X           Y           Z
 ---------------------------------------------------------------------
      1          6           0        0.489886    0.852633   -0.733148
      2          6           0        0.888957    1.657974    0.606043
      3          6           0       -1.419366    1.999892    0.336342
      4          6           0       -0.977739    1.282775   -0.951030
      5          1           0        1.138154    0.650144   -1.591888
      6          1           0       -1.622638    0.767488   -1.640976
      7          6           0       -0.395220    1.741892    1.446396
      8          1           0       -0.346955    2.567079    2.177864
      9          1           0       -0.607003    0.823936    2.025131
     10          6           0        0.765269    2.601896   -0.517280
     11          1           0        1.550888    3.130330   -1.024429
     12          6           0       -0.719661    2.793654   -0.787897
     13          1           0       -1.123098    3.624030   -1.333702
     14          1           0        1.833452    1.415700    1.096470
     15          1           0       -2.459816    2.140607    0.598568
     16          7           0       -0.271599   -1.235542    0.702069
     17          7           0        0.464378   -0.901452   -0.302250
     18          6           0       -1.698444   -1.188173    0.595946
     19          6           0        1.855946   -1.363008   -0.136489
     20          8           0        2.215371   -2.495593   -0.335102
     21          8           0       -2.438140   -0.989527    1.533150
     22          8           0        2.698543   -0.305089    0.083574
     23          8           0       -2.145871   -1.505658   -0.667576
     24          6           0       -3.583379   -1.609644   -0.853597
     25          1           0       -3.665415   -1.879578   -1.912946
     26          1           0       -3.984978   -2.395337   -0.205995
     27          1           0       -4.052797   -0.644331   -0.642673
     28          6           0        4.127807   -0.597307    0.077570
     29          1           0        4.359443   -1.318546    0.868031
     30          1           0        4.422163   -0.977458   -0.905480
     31          1           0        4.565592    0.386329    0.283785
 ---------------------------------------------------------------------
                    Distance matrix (angstroms):
                    1          2          3          4          5
     1  C    0.000000
     2  C    1.612844   0.000000
     3  C    2.470881   2.349043   0.000000
     4  C    1.544803   2.459635   1.538382   0.000000
     5  H    1.094846   2.430786   3.475744   2.299549   0.000000
     6  H    2.300904   3.485709   2.338787   1.075844   2.763721
     7  C    2.514877   1.536993   1.532207   2.509535   3.574118
     8  H    3.480462   2.196491   2.205214   3.440538   4.482323
     9  H    2.968517   2.224259   2.212423   3.034059   4.019776
    10  C    1.783916   1.472461   2.421510   2.228519   2.259018
    11  H    2.529520   2.294433   3.457166   3.132539   2.577534
    12  C    2.287698   2.412569   1.543878   1.541419   2.948307
    13  H    3.262365   3.417068   2.348328   2.376771   3.744852
    14  H    2.338742   1.091461   3.391150   3.480333   2.880414
    15  H    3.483258   3.383382   1.082173   2.309477   4.468217
    16  N    2.645786   3.119062   3.452413   3.094073   3.287165
    17  N    1.806416   2.748804   3.517682   2.696565   2.127108
    18  C    3.274167   3.846466   3.210769   3.003021   4.026452
    19  C    2.670428   3.257722   4.718086   3.961492   2.585767
    20  O    3.787658   4.460633   5.819926   4.985116   3.554655
    21  O    4.135577   4.351823   3.377407   3.669779   5.024367
    22  O    2.624028   2.720513   4.725887   4.136033   2.480818
    23  O    3.537379   4.565178   3.718137   3.036484   4.035673
    24  C    4.761177   5.727972   4.373518   3.894219   5.286264
    25  H    5.111108   6.293003   5.015408   4.260207   5.438460
    26  H    5.554422   6.390929   5.118059   4.809061   6.118998
    27  H    4.783833   5.592927   3.858153   3.642088   5.433475
    28  C    3.999257   3.981925   6.130541   5.537086   3.644345
    29  H    4.717125   4.579583   6.685010   6.209780   4.505957
    30  H    4.340707   4.659801   6.673095   5.854030   3.728935
    31  H    4.226461   3.903662   6.198877   5.749513   3.916003
                    6          7          8          9         10
     6  H    0.000000
     7  C    3.462352   0.000000
     8  H    4.410151   1.103770   0.000000
     9  H    3.804608   1.105635   1.769039   0.000000
    10  C    3.214008   2.437697   2.915828   3.392363   0.000000
    11  H    4.004300   3.438033   3.764803   4.390417   1.074076
    12  C    2.376649   2.490689   2.997663   3.435929   1.521520
    13  H    2.916126   3.435287   3.748418   4.403253   2.297223
    14  H    4.456271   2.279436   2.692445   2.677390   2.269860
    15  H    2.757151   2.267232   2.672122   2.683584   3.443701
    16  N    3.365605   3.071550   4.079654   2.470716   4.157865
    17  N    2.988843   3.283891   4.340499   3.088936   3.522814
    18  C    2.972234   3.317671   4.293123   2.698591   4.655510
    19  C    4.347763   4.148937   5.065036   3.939726   4.129775
    20  O    5.204163   5.286322   6.205736   4.955378   5.302865
    21  O    3.718497   3.411993   4.175902   2.623691   5.231100
    22  O    4.774631   3.952061   4.680861   3.996370   3.542476
    23  O    2.527543   4.252086   5.283920   3.878891   5.036797
    24  C    3.180445   5.165958   6.091733   4.802937   6.063078
    25  H    3.354678   5.924053   6.893451   5.671977   6.454646
    26  H    4.200391   5.721313   6.598755   5.172268   6.901745
    27  H    2.982535   4.841089   5.657018   4.598530   5.810979
    28  C    6.154972   5.272884   5.869248   5.313318   4.679253
    29  H    6.814099   5.683978   6.242109   5.531247   5.496093
    30  H    6.334462   6.011103   6.694419   6.093112   5.131798
    31  H    6.491855   5.272463   5.698800   5.475356   4.471342
                   11         12         13         14         15
    11  H    0.000000
    12  C    2.307529   0.000000
    13  H    2.736712   1.072469   0.000000
    14  H    2.741899   3.459477   4.418557   0.000000
    15  H    4.438403   2.318813   2.778673   4.382413   0.000000
    16  N    5.036178   4.319164   5.337120   3.408207   4.024598
    17  N    4.237607   3.910449   4.905503   3.033146   4.314685
    18  C    5.642096   4.327584   5.216499   4.416443   3.414743
    19  C    4.590380   4.933145   5.931153   3.040051   5.607266
    20  O    5.706813   6.065935   7.042185   4.182520   6.650072
    21  O    6.279074   4.759505   5.588657   4.921616   3.266749
    22  O    3.787728   4.695294   5.661412   2.176110   5.731956
    23  O    5.940181   4.531295   5.272901   5.242252   3.872587
    24  C    6.989795   5.253021   5.803002   6.503655   4.175591
    25  H    7.286869   5.637579   6.090041   7.081877   4.891120
    26  H    7.864391   6.158452   6.759797   7.076337   4.852652
    27  H    6.767207   4.790681   5.222984   6.474278   3.440080
    28  C    4.663710   5.978762   6.883559   3.217828   7.152929
    29  H    5.591233   6.741631   7.702918   3.729466   7.651186
    30  H    5.013212   6.377575   7.218517   4.054187   7.703644
    31  H    4.281286   5.905727   6.742415   3.030619   7.247961
                   16         17         18         19         20
    16  N    0.000000
    17  N    1.289161   0.000000
    18  C    1.431570   2.359399   0.000000
    19  C    2.290387   1.475457   3.633279   0.000000
    20  O    2.974638   2.368194   4.230147   1.204733   0.000000
    21  O    2.333478   3.435267   1.210356   4.622376   5.235816
    22  O    3.173330   2.344355   4.513962   1.370252   2.281897
    23  O    2.337046   2.704058   1.377489   4.039423   4.484522
    24  C    3.678034   4.146065   2.414910   5.491933   5.888909
    25  H    4.332560   4.539412   3.262140   5.823064   6.119862
    26  H    3.994858   4.694436   2.707137   5.931857   6.202503
    27  H    4.056516   4.537276   2.715312   5.973773   6.543065
    28  C    4.489111   3.695603   5.879034   2.406963   2.726023
    29  H    4.634758   4.088405   6.065395   2.697876   2.725805
    30  H    4.968121   4.004213   6.305594   2.706560   2.738612
    31  H    5.118969   4.338407   6.466425   3.252536   3.769885
                   21         22         23         24         25
    21  O    0.000000
    22  O    5.381007   0.000000
    23  O    2.279256   5.047171   0.000000
    24  C    2.718948   6.484034   1.453219   0.000000
    25  H    3.764834   6.853107   1.999944   1.096273   0.000000
    26  H    2.719124   7.008740   2.094493   1.094524   1.811577
    27  H    2.731389   6.798758   2.092575   1.093925   1.813696
    28  C    6.736780   1.458843   6.382741   7.832898   8.144979
    29  H    6.837965   2.097870   6.686719   8.132476   8.511577
    30  H    7.280853   2.097897   6.593532   8.030632   8.199861
    31  H    7.246113   2.001004   7.037644   8.466598   8.815296
                   26         27         28         29         30
    26  H    0.000000
    27  H    1.805909   0.000000
    28  C    8.314481   8.212384   0.000000
    29  H    8.481885   8.573364   1.094838   0.000000
    30  H    8.554512   8.485575   1.094325   1.807102   0.000000
    31  H    9.004987   8.729102   1.096230   1.813957   1.815169
                   31
    31  H    0.000000
 Stoichiometry    C11H14N2O4
 Framework group  C1[X(C11H14N2O4)]
 Deg. of freedom    87
 Full point group                 C1      NOp   1
 Largest Abelian subgroup         C1      NOp   1
 Largest concise Abelian subgroup C1      NOp   1
                         Standard orientation:                         
 ---------------------------------------------------------------------
 Center     Atomic      Atomic             Coordinates (Angstroms)
 Number     Number       Type             X           Y           Z
 ---------------------------------------------------------------------
      1          6           0        0.489886    0.852633   -0.733148
      2          6           0        0.888957    1.657974    0.606043
      3          6           0       -1.419366    1.999892    0.336342
      4          6           0       -0.977739    1.282775   -0.951030
      5          1           0        1.138154    0.650144   -1.591888
      6          1           0       -1.622638    0.767488   -1.640976
      7          6           0       -0.395220    1.741892    1.446396
      8          1           0       -0.346955    2.567079    2.177864
      9          1           0       -0.607003    0.823936    2.025131
     10          6           0        0.765269    2.601896   -0.517280
     11          1           0        1.550888    3.130330   -1.024429
     12          6           0       -0.719661    2.793654   -0.787897
     13          1           0       -1.123098    3.624030   -1.333702
     14          1           0        1.833452    1.415700    1.096470
     15          1           0       -2.459816    2.140607    0.598568
     16          7           0       -0.271599   -1.235542    0.702069
     17          7           0        0.464378   -0.901452   -0.302250
     18          6           0       -1.698444   -1.188173    0.595946
     19          6           0        1.855946   -1.363008   -0.136489
     20          8           0        2.215371   -2.495593   -0.335102
     21          8           0       -2.438140   -0.989527    1.533150
     22          8           0        2.698543   -0.305089    0.083574
     23          8           0       -2.145871   -1.505658   -0.667576
     24          6           0       -3.583379   -1.609644   -0.853597
     25          1           0       -3.665415   -1.879578   -1.912946
     26          1           0       -3.984978   -2.395337   -0.205995
     27          1           0       -4.052797   -0.644331   -0.642673
     28          6           0        4.127807   -0.597307    0.077570
     29          1           0        4.359443   -1.318546    0.868031
     30          1           0        4.422163   -0.977458   -0.905480
     31          1           0        4.565592    0.386329    0.283785
 ---------------------------------------------------------------------
 Rotational constants (GHZ):      0.6457181      0.4431437      0.3118174
 Standard basis: VSTO-6G (5D, 7F)
 There are    82 symmetry adapted cartesian basis functions of A   symmetry.
 There are    82 symmetry adapted basis functions of A   symmetry.
    82 basis functions,   492 primitive gaussians,    82 cartesian basis functions
    46 alpha electrons       46 beta electrons
       nuclear repulsion energy       739.3551811931 Hartrees.
 Integral buffers will be    131072 words long.
 Regular integral format.
 Two-electron integral symmetry is turned off.
 Nuclear repulsion after empirical dispersion term =      739.3443333093 Hartrees.
 Force inversion solution in PCM.
 ------------------------------------------------------------------------------
 Polarizable Continuum Model (PCM)
 =================================
 Model                : C-PCM.
 Atomic radii         : UFF (Universal Force Field).
 Polarization charges : Total charges.
 Charge compensation  : None.
 Solution method      : Matrix inversion.
 Cavity type          : Scaled VdW (van der Waals Surface) (Alpha=1.100).
 Cavity algorithm     : GePol (No added spheres)
                        Default sphere list used, NSphG=   31.
                        Lebedev-Laikov grids with approx.  5.0 points / Ang**2.
                        Smoothing algorithm: Karplus/York (Gamma=1.0000).
                        Polarization charges: spherical gaussians, with
                                              point-specific exponents (IZeta= 3).
                        Self-potential: point-specific (ISelfS= 7).
                        Self-field    : sphere-specific E.n sum rule (ISelfD= 2).
 1st derivatives      : Analytical E(r).r(x)/FMM algorithm (CHGder, D1EAlg=3).
                        Cavity 1st derivative terms included.
 2nd derivatives      : Analytical E(r).r(xy)/FMM algorithm (CHGder, D2EAlg=3).
                        Cavity 2nd derivative terms included.
 Solvent              : Toluene, Eps=   2.374100 Eps(inf)=   2.238315
 ------------------------------------------------------------------------------
 Do NDO integrals.
 One-electron integrals computed using PRISM.
 NBasis=    82 RedAO= F EigKep=  0.00D+00  NBF=    82
 NBsUse=    82 1.00D-04 EigRej=  0.00D+00 NBFU=    82
 Simple Huckel Guess.
 Overlap will be assumed to be unity.
 Keep J ints in memory in canonical form, NReq=8905659.
 Requested convergence on RMS density matrix=1.00D-08 within 128 cycles.
 Requested convergence on MAX density matrix=1.00D-06.
 Requested convergence on             energy=1.00D-06.
 No special actions if energy rises.
 Inv3:  Mode=1 IEnd=    15540528.
 Iteration    1 A*A^-1 deviation from unit magnitude is 5.55D-15 for   1137.
 Iteration    1 A*A^-1 deviation from orthogonality  is 2.20D-15 for   2251    185.
 Iteration    1 A^-1*A deviation from unit magnitude is 5.55D-15 for   1137.
 Iteration    1 A^-1*A deviation from orthogonality  is 1.73D-15 for   2059   1384.
 Error on total polarization charges = -0.00026
 SCF Done:  E(RPM6D3) = -0.224271492593E-01 A.U. after   19 cycles
            NFock= 18  Conv=0.36D-08     -V/T= 0.9996
 Range of M.O.s used for correlation:     1    82
 NBasis=    82 NAE=    46 NBE=    46 NFC=     0 NFV=     0
 NROrb=     82 NOA=    46 NOB=    46 NVA=    36 NVB=    36
 Symmetrizing basis deriv contribution to polar:
 IMax=3 JMax=2 DiffMx= 0.00D+00
 G2DrvN: will do    32 centers at a time, making    1 passes.
 Calling FoFCou, ICntrl=  3107 FMM=F I1Cent=   0 AccDes= 0.00D+00.
 NEqPCM:  Using equilibrium solvation (IEInf=0, Eps=   2.3741, EpsInf=   2.2383)
 G2PCM: DoFxE=T DoFxN=T DoGrad=T DoDP/DQ/DG/TGxP=FFFF NFrqRd=   0 IEInf=0 SqF1=F DoCFld=F IF1Alg=4.
 End of G2Drv F.D. properties file   721 does not exist.
 End of G2Drv F.D. properties file   722 does not exist.
 End of G2Drv F.D. properties file   788 does not exist.
          IDoAtm=1111111111111111111111111111111
 NEqPCM:  Using equilibrium solvation (IEInf=0, Eps=   2.3741, EpsInf=   2.2383)
          Differentiating once with respect to electric field.
                with respect to dipole field.
          Differentiating once with respect to nuclear coordinates.
          Electric field/nuclear overlap derivatives assumed to be zero.
 Keep J ints in memory in canonical form, NReq=12852532.
          There are    96 degrees of freedom in the 1st order CPHF.  IDoFFX=5 NUNeed=    96.
 LinEq1:  Iter=  0 NonCon=    96 RMS=2.51D-01 Max=7.97D+00 NDo=    96
 AX will form    96 AO Fock derivatives at one time.
 LinEq1:  Iter=  1 NonCon=    96 RMS=5.84D-02 Max=6.56D-01 NDo=    96
 LinEq1:  Iter=  2 NonCon=    96 RMS=1.62D-02 Max=2.89D-01 NDo=    96
 LinEq1:  Iter=  3 NonCon=    96 RMS=2.79D-03 Max=3.01D-02 NDo=    96
 LinEq1:  Iter=  4 NonCon=    96 RMS=5.83D-04 Max=9.01D-03 NDo=    96
 LinEq1:  Iter=  5 NonCon=    96 RMS=9.99D-05 Max=1.68D-03 NDo=    96
 LinEq1:  Iter=  6 NonCon=    96 RMS=1.90D-05 Max=2.28D-04 NDo=    96
 LinEq1:  Iter=  7 NonCon=    83 RMS=4.01D-06 Max=5.37D-05 NDo=    96
 LinEq1:  Iter=  8 NonCon=    43 RMS=8.45D-07 Max=1.17D-05 NDo=    96
 LinEq1:  Iter=  9 NonCon=     4 RMS=1.50D-07 Max=1.78D-06 NDo=    96
 LinEq1:  Iter= 10 NonCon=     3 RMS=2.39D-08 Max=2.11D-07 NDo=    96
 LinEq1:  Iter= 11 NonCon=     0 RMS=4.19D-09 Max=3.35D-08 NDo=    96
 Linear equations converged to 1.000D-08 1.000D-07 after    11 iterations.
 Isotropic polarizability for W=    0.000000      188.62 Bohr**3.
 End of Minotr F.D. properties file   721 does not exist.
 End of Minotr F.D. properties file   722 does not exist.
 End of Minotr F.D. properties file   788 does not exist.

 **********************************************************************

            Population analysis using the SCF density.

 **********************************************************************

 Orbital symmetries:
       Occupied  (A) (A) (A) (A) (A) (A) (A) (A) (A) (A) (A) (A)
                 (A) (A) (A) (A) (A) (A) (A) (A) (A) (A) (A) (A)
                 (A) (A) (A) (A) (A) (A) (A) (A) (A) (A) (A) (A)
                 (A) (A) (A) (A) (A) (A) (A) (A) (A) (A)
       Virtual   (A) (A) (A) (A) (A) (A) (A) (A) (A) (A) (A) (A)
                 (A) (A) (A) (A) (A) (A) (A) (A) (A) (A) (A) (A)
                 (A) (A) (A) (A) (A) (A) (A) (A) (A) (A) (A) (A)
 The electronic state is 1-A.
 Alpha  occ. eigenvalues --   -1.26225  -1.23407  -1.19957  -1.18110  -1.14662
 Alpha  occ. eigenvalues --   -1.12170  -1.03264  -0.99020  -0.95500  -0.95232
 Alpha  occ. eigenvalues --   -0.91078  -0.86481  -0.81394  -0.75574  -0.74979
 Alpha  occ. eigenvalues --   -0.73217  -0.71112  -0.69489  -0.68308  -0.63927
 Alpha  occ. eigenvalues --   -0.63510  -0.62548  -0.61065  -0.60367  -0.58384
 Alpha  occ. eigenvalues --   -0.55878  -0.55741  -0.55350  -0.54077  -0.53414
 Alpha  occ. eigenvalues --   -0.52193  -0.51849  -0.51032  -0.49602  -0.49000
 Alpha  occ. eigenvalues --   -0.48539  -0.47961  -0.45372  -0.44206  -0.43623
 Alpha  occ. eigenvalues --   -0.43519  -0.42787  -0.42045  -0.41978  -0.37534
 Alpha  occ. eigenvalues --   -0.31821
 Alpha virt. eigenvalues --   -0.06867  -0.00189   0.00798   0.02079   0.04057
 Alpha virt. eigenvalues --    0.05234   0.06652   0.07494   0.08324   0.09235
 Alpha virt. eigenvalues --    0.10281   0.10510   0.10578   0.11794   0.11979
 Alpha virt. eigenvalues --    0.12556   0.13048   0.14558   0.14711   0.15331
 Alpha virt. eigenvalues --    0.16602   0.17909   0.18233   0.18252   0.18421
 Alpha virt. eigenvalues --    0.19088   0.19194   0.19350   0.19408   0.19690
 Alpha virt. eigenvalues --    0.19809   0.20404   0.20621   0.20781   0.21030
 Alpha virt. eigenvalues --    0.21789
          Condensed to atoms (all electrons):
               1          2          3          4          5          6
     1  C    4.211041   0.000000   0.000000   0.000000   0.000000   0.000000
     2  C    0.000000   4.039242   0.000000   0.000000   0.000000   0.000000
     3  C    0.000000   0.000000   4.108352   0.000000   0.000000   0.000000
     4  C    0.000000   0.000000   0.000000   4.154182   0.000000   0.000000
     5  H    0.000000   0.000000   0.000000   0.000000   0.809180   0.000000
     6  H    0.000000   0.000000   0.000000   0.000000   0.000000   0.818060
     7  C    0.000000   0.000000   0.000000   0.000000   0.000000   0.000000
     8  H    0.000000   0.000000   0.000000   0.000000   0.000000   0.000000
     9  H    0.000000   0.000000   0.000000   0.000000   0.000000   0.000000
    10  C    0.000000   0.000000   0.000000   0.000000   0.000000   0.000000
    11  H    0.000000   0.000000   0.000000   0.000000   0.000000   0.000000
    12  C    0.000000   0.000000   0.000000   0.000000   0.000000   0.000000
    13  H    0.000000   0.000000   0.000000   0.000000   0.000000   0.000000
    14  H    0.000000   0.000000   0.000000   0.000000   0.000000   0.000000
    15  H    0.000000   0.000000   0.000000   0.000000   0.000000   0.000000
    16  N    0.000000   0.000000   0.000000   0.000000   0.000000   0.000000
    17  N    0.000000   0.000000   0.000000   0.000000   0.000000   0.000000
    18  C    0.000000   0.000000   0.000000   0.000000   0.000000   0.000000
    19  C    0.000000   0.000000   0.000000   0.000000   0.000000   0.000000
    20  O    0.000000   0.000000   0.000000   0.000000   0.000000   0.000000
    21  O    0.000000   0.000000   0.000000   0.000000   0.000000   0.000000
    22  O    0.000000   0.000000   0.000000   0.000000   0.000000   0.000000
    23  O    0.000000   0.000000   0.000000   0.000000   0.000000   0.000000
    24  C    0.000000   0.000000   0.000000   0.000000   0.000000   0.000000
    25  H    0.000000   0.000000   0.000000   0.000000   0.000000   0.000000
    26  H    0.000000   0.000000   0.000000   0.000000   0.000000   0.000000
    27  H    0.000000   0.000000   0.000000   0.000000   0.000000   0.000000
    28  C    0.000000   0.000000   0.000000   0.000000   0.000000   0.000000
    29  H    0.000000   0.000000   0.000000   0.000000   0.000000   0.000000
    30  H    0.000000   0.000000   0.000000   0.000000   0.000000   0.000000
    31  H    0.000000   0.000000   0.000000   0.000000   0.000000   0.000000
               7          8          9         10         11         12
     1  C    0.000000   0.000000   0.000000   0.000000   0.000000   0.000000
     2  C    0.000000   0.000000   0.000000   0.000000   0.000000   0.000000
     3  C    0.000000   0.000000   0.000000   0.000000   0.000000   0.000000
     4  C    0.000000   0.000000   0.000000   0.000000   0.000000   0.000000
     5  H    0.000000   0.000000   0.000000   0.000000   0.000000   0.000000
     6  H    0.000000   0.000000   0.000000   0.000000   0.000000   0.000000
     7  C    4.280716   0.000000   0.000000   0.000000   0.000000   0.000000
     8  H    0.000000   0.833869   0.000000   0.000000   0.000000   0.000000
     9  H    0.000000   0.000000   0.815058   0.000000   0.000000   0.000000
    10  C    0.000000   0.000000   0.000000   4.037466   0.000000   0.000000
    11  H    0.000000   0.000000   0.000000   0.000000   0.828717   0.000000
    12  C    0.000000   0.000000   0.000000   0.000000   0.000000   4.222316
    13  H    0.000000   0.000000   0.000000   0.000000   0.000000   0.000000
    14  H    0.000000   0.000000   0.000000   0.000000   0.000000   0.000000
    15  H    0.000000   0.000000   0.000000   0.000000   0.000000   0.000000
    16  N    0.000000   0.000000   0.000000   0.000000   0.000000   0.000000
    17  N    0.000000   0.000000   0.000000   0.000000   0.000000   0.000000
    18  C    0.000000   0.000000   0.000000   0.000000   0.000000   0.000000
    19  C    0.000000   0.000000   0.000000   0.000000   0.000000   0.000000
    20  O    0.000000   0.000000   0.000000   0.000000   0.000000   0.000000
    21  O    0.000000   0.000000   0.000000   0.000000   0.000000   0.000000
    22  O    0.000000   0.000000   0.000000   0.000000   0.000000   0.000000
    23  O    0.000000   0.000000   0.000000   0.000000   0.000000   0.000000
    24  C    0.000000   0.000000   0.000000   0.000000   0.000000   0.000000
    25  H    0.000000   0.000000   0.000000   0.000000   0.000000   0.000000
    26  H    0.000000   0.000000   0.000000   0.000000   0.000000   0.000000
    27  H    0.000000   0.000000   0.000000   0.000000   0.000000   0.000000
    28  C    0.000000   0.000000   0.000000   0.000000   0.000000   0.000000
    29  H    0.000000   0.000000   0.000000   0.000000   0.000000   0.000000
    30  H    0.000000   0.000000   0.000000   0.000000   0.000000   0.000000
    31  H    0.000000   0.000000   0.000000   0.000000   0.000000   0.000000
              13         14         15         16         17         18
     1  C    0.000000   0.000000   0.000000   0.000000   0.000000   0.000000
     2  C    0.000000   0.000000   0.000000   0.000000   0.000000   0.000000
     3  C    0.000000   0.000000   0.000000   0.000000   0.000000   0.000000
     4  C    0.000000   0.000000   0.000000   0.000000   0.000000   0.000000
     5  H    0.000000   0.000000   0.000000   0.000000   0.000000   0.000000
     6  H    0.000000   0.000000   0.000000   0.000000   0.000000   0.000000
     7  C    0.000000   0.000000   0.000000   0.000000   0.000000   0.000000
     8  H    0.000000   0.000000   0.000000   0.000000   0.000000   0.000000
     9  H    0.000000   0.000000   0.000000   0.000000   0.000000   0.000000
    10  C    0.000000   0.000000   0.000000   0.000000   0.000000   0.000000
    11  H    0.000000   0.000000   0.000000   0.000000   0.000000   0.000000
    12  C    0.000000   0.000000   0.000000   0.000000   0.000000   0.000000
    13  H    0.820017   0.000000   0.000000   0.000000   0.000000   0.000000
    14  H    0.000000   0.815328   0.000000   0.000000   0.000000   0.000000
    15  H    0.000000   0.000000   0.832182   0.000000   0.000000   0.000000
    16  N    0.000000   0.000000   0.000000   5.412316   0.000000   0.000000
    17  N    0.000000   0.000000   0.000000   0.000000   5.030355   0.000000
    18  C    0.000000   0.000000   0.000000   0.000000   0.000000   3.282347
    19  C    0.000000   0.000000   0.000000   0.000000   0.000000   0.000000
    20  O    0.000000   0.000000   0.000000   0.000000   0.000000   0.000000
    21  O    0.000000   0.000000   0.000000   0.000000   0.000000   0.000000
    22  O    0.000000   0.000000   0.000000   0.000000   0.000000   0.000000
    23  O    0.000000   0.000000   0.000000   0.000000   0.000000   0.000000
    24  C    0.000000   0.000000   0.000000   0.000000   0.000000   0.000000
    25  H    0.000000   0.000000   0.000000   0.000000   0.000000   0.000000
    26  H    0.000000   0.000000   0.000000   0.000000   0.000000   0.000000
    27  H    0.000000   0.000000   0.000000   0.000000   0.000000   0.000000
    28  C    0.000000   0.000000   0.000000   0.000000   0.000000   0.000000
    29  H    0.000000   0.000000   0.000000   0.000000   0.000000   0.000000
    30  H    0.000000   0.000000   0.000000   0.000000   0.000000   0.000000
    31  H    0.000000   0.000000   0.000000   0.000000   0.000000   0.000000
              19         20         21         22         23         24
     1  C    0.000000   0.000000   0.000000   0.000000   0.000000   0.000000
     2  C    0.000000   0.000000   0.000000   0.000000   0.000000   0.000000
     3  C    0.000000   0.000000   0.000000   0.000000   0.000000   0.000000
     4  C    0.000000   0.000000   0.000000   0.000000   0.000000   0.000000
     5  H    0.000000   0.000000   0.000000   0.000000   0.000000   0.000000
     6  H    0.000000   0.000000   0.000000   0.000000   0.000000   0.000000
     7  C    0.000000   0.000000   0.000000   0.000000   0.000000   0.000000
     8  H    0.000000   0.000000   0.000000   0.000000   0.000000   0.000000
     9  H    0.000000   0.000000   0.000000   0.000000   0.000000   0.000000
    10  C    0.000000   0.000000   0.000000   0.000000   0.000000   0.000000
    11  H    0.000000   0.000000   0.000000   0.000000   0.000000   0.000000
    12  C    0.000000   0.000000   0.000000   0.000000   0.000000   0.000000
    13  H    0.000000   0.000000   0.000000   0.000000   0.000000   0.000000
    14  H    0.000000   0.000000   0.000000   0.000000   0.000000   0.000000
    15  H    0.000000   0.000000   0.000000   0.000000   0.000000   0.000000
    16  N    0.000000   0.000000   0.000000   0.000000   0.000000   0.000000
    17  N    0.000000   0.000000   0.000000   0.000000   0.000000   0.000000
    18  C    0.000000   0.000000   0.000000   0.000000   0.000000   0.000000
    19  C    3.332126   0.000000   0.000000   0.000000   0.000000   0.000000
    20  O    0.000000   6.489211   0.000000   0.000000   0.000000   0.000000
    21  O    0.000000   0.000000   6.536694   0.000000   0.000000   0.000000
    22  O    0.000000   0.000000   0.000000   6.434313   0.000000   0.000000
    23  O    0.000000   0.000000   0.000000   0.000000   6.446039   0.000000
    24  C    0.000000   0.000000   0.000000   0.000000   0.000000   4.174737
    25  H    0.000000   0.000000   0.000000   0.000000   0.000000   0.000000
    26  H    0.000000   0.000000   0.000000   0.000000   0.000000   0.000000
    27  H    0.000000   0.000000   0.000000   0.000000   0.000000   0.000000
    28  C    0.000000   0.000000   0.000000   0.000000   0.000000   0.000000
    29  H    0.000000   0.000000   0.000000   0.000000   0.000000   0.000000
    30  H    0.000000   0.000000   0.000000   0.000000   0.000000   0.000000
    31  H    0.000000   0.000000   0.000000   0.000000   0.000000   0.000000
              25         26         27         28         29         30
     1  C    0.000000   0.000000   0.000000   0.000000   0.000000   0.000000
     2  C    0.000000   0.000000   0.000000   0.000000   0.000000   0.000000
     3  C    0.000000   0.000000   0.000000   0.000000   0.000000   0.000000
     4  C    0.000000   0.000000   0.000000   0.000000   0.000000   0.000000
     5  H    0.000000   0.000000   0.000000   0.000000   0.000000   0.000000
     6  H    0.000000   0.000000   0.000000   0.000000   0.000000   0.000000
     7  C    0.000000   0.000000   0.000000   0.000000   0.000000   0.000000
     8  H    0.000000   0.000000   0.000000   0.000000   0.000000   0.000000
     9  H    0.000000   0.000000   0.000000   0.000000   0.000000   0.000000
    10  C    0.000000   0.000000   0.000000   0.000000   0.000000   0.000000
    11  H    0.000000   0.000000   0.000000   0.000000   0.000000   0.000000
    12  C    0.000000   0.000000   0.000000   0.000000   0.000000   0.000000
    13  H    0.000000   0.000000   0.000000   0.000000   0.000000   0.000000
    14  H    0.000000   0.000000   0.000000   0.000000   0.000000   0.000000
    15  H    0.000000   0.000000   0.000000   0.000000   0.000000   0.000000
    16  N    0.000000   0.000000   0.000000   0.000000   0.000000   0.000000
    17  N    0.000000   0.000000   0.000000   0.000000   0.000000   0.000000
    18  C    0.000000   0.000000   0.000000   0.000000   0.000000   0.000000
    19  C    0.000000   0.000000   0.000000   0.000000   0.000000   0.000000
    20  O    0.000000   0.000000   0.000000   0.000000   0.000000   0.000000
    21  O    0.000000   0.000000   0.000000   0.000000   0.000000   0.000000
    22  O    0.000000   0.000000   0.000000   0.000000   0.000000   0.000000
    23  O    0.000000   0.000000   0.000000   0.000000   0.000000   0.000000
    24  C    0.000000   0.000000   0.000000   0.000000   0.000000   0.000000
    25  H    0.836825   0.000000   0.000000   0.000000   0.000000   0.000000
    26  H    0.000000   0.848018   0.000000   0.000000   0.000000   0.000000
    27  H    0.000000   0.000000   0.852505   0.000000   0.000000   0.000000
    28  C    0.000000   0.000000   0.000000   4.177475   0.000000   0.000000
    29  H    0.000000   0.000000   0.000000   0.000000   0.842557   0.000000
    30  H    0.000000   0.000000   0.000000   0.000000   0.000000   0.844542
    31  H    0.000000   0.000000   0.000000   0.000000   0.000000   0.000000
              31
     1  C    0.000000
     2  C    0.000000
     3  C    0.000000
     4  C    0.000000
     5  H    0.000000
     6  H    0.000000
     7  C    0.000000
     8  H    0.000000
     9  H    0.000000
    10  C    0.000000
    11  H    0.000000
    12  C    0.000000
    13  H    0.000000
    14  H    0.000000
    15  H    0.000000
    16  N    0.000000
    17  N    0.000000
    18  C    0.000000
    19  C    0.000000
    20  O    0.000000
    21  O    0.000000
    22  O    0.000000
    23  O    0.000000
    24  C    0.000000
    25  H    0.000000
    26  H    0.000000
    27  H    0.000000
    28  C    0.000000
    29  H    0.000000
    30  H    0.000000
    31  H    0.834215
 Mulliken charges:
               1
     1  C   -0.211041
     2  C   -0.039242
     3  C   -0.108352
     4  C   -0.154182
     5  H    0.190820
     6  H    0.181940
     7  C   -0.280716
     8  H    0.166131
     9  H    0.184942
    10  C   -0.037466
    11  H    0.171283
    12  C   -0.222316
    13  H    0.179983
    14  H    0.184672
    15  H    0.167818
    16  N   -0.412316
    17  N   -0.030355
    18  C    0.717653
    19  C    0.667874
    20  O   -0.489211
    21  O   -0.536694
    22  O   -0.434313
    23  O   -0.446039
    24  C   -0.174737
    25  H    0.163175
    26  H    0.151982
    27  H    0.147495
    28  C   -0.177475
    29  H    0.157443
    30  H    0.155458
    31  H    0.165785
 Sum of Mulliken charges =   0.00000
 Mulliken charges with hydrogens summed into heavy atoms:
               1
     1  C   -0.020221
     2  C    0.145429
     3  C    0.059466
     4  C    0.027758
     7  C    0.070356
    10  C    0.133818
    12  C   -0.042333
    16  N   -0.412316
    17  N   -0.030355
    18  C    0.717653
    19  C    0.667874
    20  O   -0.489211
    21  O   -0.536694
    22  O   -0.434313
    23  O   -0.446039
    24  C    0.287915
    28  C    0.301211
 APT charges:
               1
     1  C   -2.086052
     2  C    0.378830
     3  C   -0.114534
     4  C   -0.173726
     5  H    0.313459
     6  H    0.173919
     7  C   -0.338580
     8  H    0.202253
     9  H    0.164970
    10  C    0.242993
    11  H    0.226123
    12  C   -0.162034
    13  H    0.243822
    14  H    0.161358
    15  H    0.185488
    16  N   -1.226586
    17  N    1.210402
    18  C    1.967509
    19  C    1.809222
    20  O   -1.024844
    21  O   -1.062534
    22  O   -0.911927
    23  O   -1.011002
    24  C   -0.074027
    25  H    0.156425
    26  H    0.174546
    27  H    0.139136
    28  C   -0.045723
    29  H    0.170067
    30  H    0.159714
    31  H    0.151272
 Sum of APT charges =  -0.00006
 APT charges with hydrogens summed into heavy atoms:
               1
     1  C   -1.772593
     2  C    0.540188
     3  C    0.070954
     4  C    0.000193
     7  C    0.028643
    10  C    0.469116
    12  C    0.081787
    16  N   -1.226586
    17  N    1.210402
    18  C    1.967509
    19  C    1.809222
    20  O   -1.024844
    21  O   -1.062534
    22  O   -0.911927
    23  O   -1.011002
    24  C    0.396080
    28  C    0.435331
 Charge=              0.0000 electrons
 Dipole moment (field-independent basis, Debye):
    X=              2.4508    Y=              7.3947    Z=             -3.0805  Tot=              8.3772
 N-N= 7.393443333093D+02 E-N=-1.356393553511D+03  KE=-5.956531363182D+01
  Exact polarizability: 177.758  30.831 276.505 -15.947 -26.737 111.593
 Approx polarizability: 106.337  15.887 144.592 -12.507 -11.219  80.978
 D2PCM: C-PCM CHGder 2nd derivatives, FixD1E=F FixD2E=F DoIter=F DoCFld=F I1PDM=0
 Calling FoFJK, ICntrl=    100127 FMM=F ISym2X=0 I1Cent= 0 IOpClX= 0 NMat=1 NMatS=1 NMatT=0.
 Full mass-weighted force constant matrix:
 Low frequencies --- -827.4863   -3.7340   -0.1617   -0.0341    0.2483    2.2347
 Low frequencies ---    6.2523   24.7403   37.1572
 ******    1 imaginary frequencies (negative Signs) ****** 
 Diagonal vibrational polarizability:
       88.4629651     308.0852078     181.4553187
 Harmonic frequencies (cm**-1), IR intensities (KM/Mole), Raman scattering
 activities (A**4/AMU), depolarization ratios for plane and unpolarized
 incident light, reduced masses (AMU), force constants (mDyne/A),
 and normal coordinates:
                      1                      2                      3
                      A                      A                      A
 Frequencies --   -827.4863                24.7259                37.1363
 Red. masses --      9.1646                 5.9578                 4.5974
 Frc consts  --      3.6973                 0.0021                 0.0037
 IR Inten    --   5284.9676                 2.6420                 3.2315
  Atom  AN      X      Y      Z        X      Y      Z        X      Y      Z
     1   6     0.11   0.68  -0.12    -0.01   0.00   0.04     0.00  -0.04  -0.01
     2   6    -0.01  -0.09   0.06     0.02  -0.02   0.04    -0.04  -0.02  -0.01
     3   6    -0.01   0.02   0.02     0.02   0.02   0.07    -0.04  -0.06  -0.06
     4   6    -0.03   0.04  -0.02     0.00   0.02   0.06    -0.01  -0.07  -0.04
     5   1     0.03  -0.42   0.18    -0.02  -0.02   0.03     0.01  -0.05   0.00
     6   1     0.03  -0.05   0.03    -0.02   0.03   0.06     0.01  -0.09  -0.04
     7   6    -0.01   0.00   0.02     0.03  -0.01   0.05    -0.05  -0.03  -0.04
     8   1    -0.01   0.03  -0.03     0.05  -0.01   0.06    -0.08  -0.01  -0.05
     9   1    -0.03   0.06   0.06     0.02  -0.01   0.05    -0.05  -0.02  -0.02
    10   6     0.01  -0.18  -0.15     0.02  -0.02   0.04    -0.03  -0.04  -0.03
    11   1    -0.05   0.12   0.16     0.02  -0.02   0.03    -0.03  -0.03  -0.02
    12   6    -0.07   0.02   0.01     0.02   0.01   0.06    -0.03  -0.06  -0.06
    13   1    -0.03   0.05   0.07     0.03   0.02   0.07    -0.04  -0.07  -0.07
    14   1    -0.02   0.04   0.06     0.02  -0.03   0.02    -0.04   0.00   0.00
    15   1     0.00  -0.02   0.02     0.03   0.03   0.08    -0.05  -0.07  -0.08
    16   7     0.05  -0.06  -0.05    -0.04   0.02   0.03     0.03  -0.04   0.02
    17   7    -0.05  -0.30   0.15     0.00   0.00   0.05     0.02  -0.04   0.01
    18   6    -0.10   0.03  -0.02    -0.04   0.00  -0.04     0.03  -0.05   0.04
    19   6     0.08  -0.02   0.02    -0.01   0.00   0.10     0.03  -0.01   0.03
    20   8     0.02  -0.03  -0.01    -0.03  -0.05   0.37     0.05  -0.01   0.08
    21   8     0.01   0.01   0.01    -0.09   0.00  -0.08     0.04  -0.23   0.09
    22   8    -0.02  -0.01   0.00     0.02   0.05  -0.23     0.01   0.02  -0.02
    23   8     0.02  -0.01   0.01     0.03  -0.02  -0.06    -0.01   0.22  -0.02
    24   6    -0.01   0.00   0.00     0.04  -0.04  -0.13    -0.02   0.32  -0.01
    25   1     0.03   0.00  -0.01     0.09  -0.04  -0.13    -0.05   0.63  -0.09
    26   1    -0.01  -0.01  -0.01     0.02  -0.06  -0.15    -0.02   0.15  -0.23
    27   1     0.00   0.01  -0.01     0.01  -0.05  -0.15     0.02   0.28   0.28
    28   6     0.00   0.00   0.00     0.01   0.04  -0.31     0.01   0.05  -0.01
    29   1     0.01   0.01   0.00     0.09   0.21  -0.17     0.04   0.11   0.03
    30   1     0.01   0.01  -0.01    -0.09  -0.17  -0.25     0.02   0.00   0.01
    31   1    -0.03   0.02   0.00     0.04   0.09  -0.57    -0.01   0.08  -0.08
                      4                      5                      6
                      A                      A                      A
 Frequencies --     55.2570                58.1497                66.5411
 Red. masses --      1.7488                 1.2902                 1.3237
 Frc consts  --      0.0031                 0.0026                 0.0035
 IR Inten    --      0.2289                 0.8040                 0.3776
  Atom  AN      X      Y      Z        X      Y      Z        X      Y      Z
     1   6     0.03  -0.01   0.04    -0.01   0.00  -0.01    -0.02  -0.01  -0.02
     2   6    -0.06  -0.03   0.08     0.03   0.02  -0.04     0.03   0.01  -0.04
     3   6    -0.04   0.00  -0.08     0.02   0.01   0.04     0.01  -0.02   0.05
     4   6     0.04   0.00  -0.05    -0.02  -0.01   0.03    -0.03  -0.02   0.04
     5   1     0.08   0.01   0.07    -0.04  -0.02  -0.03    -0.05  -0.01  -0.04
     6   1     0.09   0.01  -0.10    -0.05  -0.02   0.06    -0.05  -0.03   0.06
     7   6    -0.11  -0.02  -0.01     0.06   0.02   0.00     0.06  -0.01   0.01
     8   1    -0.16  -0.02  -0.01     0.09   0.03  -0.01     0.08   0.00   0.00
     9   1    -0.16  -0.01  -0.02     0.09   0.03   0.02     0.10  -0.01   0.02
    10   6     0.03  -0.01   0.08    -0.01   0.00  -0.05    -0.03   0.00  -0.05
    11   1     0.07  -0.01   0.14    -0.03   0.00  -0.09    -0.06   0.00  -0.08
    12   6     0.05   0.00  -0.02    -0.02   0.00   0.00    -0.05  -0.02   0.02
    13   1     0.09   0.01  -0.05    -0.05  -0.01   0.01    -0.08  -0.03   0.03
    14   1    -0.09  -0.04   0.13     0.05   0.03  -0.07     0.05   0.03  -0.08
    15   1    -0.05   0.00  -0.15     0.03   0.01   0.07     0.02  -0.04   0.09
    16   7     0.01  -0.02   0.01    -0.01   0.02   0.02     0.00   0.00   0.00
    17   7     0.01  -0.01   0.01    -0.01   0.00   0.02     0.00  -0.01   0.00
    18   6     0.01   0.01   0.01    -0.01   0.00   0.00     0.00   0.00  -0.01
    19   6     0.01  -0.01   0.00    -0.01   0.00   0.02     0.00   0.00   0.01
    20   8     0.02  -0.01   0.00    -0.01   0.00   0.02     0.01   0.00   0.02
    21   8     0.02   0.04   0.01    -0.03  -0.03  -0.01    -0.01  -0.02  -0.01
    22   8     0.00   0.00  -0.01     0.00  -0.01   0.03     0.00   0.01   0.01
    23   8     0.00  -0.02   0.02     0.01   0.02  -0.01     0.01   0.01  -0.01
    24   6    -0.01   0.04   0.03     0.02  -0.03  -0.03     0.00   0.07  -0.04
    25   1    -0.01  -0.18   0.08     0.03   0.18  -0.09     0.03  -0.44   0.09
    26   1    -0.08   0.21   0.19     0.08  -0.19  -0.19    -0.15   0.44   0.32
    27   1     0.07   0.12  -0.19    -0.05  -0.11   0.17     0.13   0.24  -0.53
    28   6     0.01   0.03  -0.10     0.00  -0.01  -0.02     0.00   0.01   0.03
    29   1     0.04  -0.29  -0.40    -0.02  -0.39  -0.35    -0.01  -0.05  -0.02
    30   1     0.00   0.43  -0.26     0.03   0.46  -0.19     0.02   0.08   0.00
    31   1    -0.01  -0.05   0.29    -0.01  -0.11   0.47    -0.01  -0.01   0.10
                      7                      8                      9
                      A                      A                      A
 Frequencies --     79.6503                91.2443               102.9255
 Red. masses --      5.0402                 4.3563                 4.2642
 Frc consts  --      0.0188                 0.0214                 0.0266
 IR Inten    --      1.7620                 2.2062                 1.8098
  Atom  AN      X      Y      Z        X      Y      Z        X      Y      Z
     1   6     0.01   0.05   0.01    -0.02  -0.03   0.06    -0.02  -0.10   0.00
     2   6     0.00   0.03   0.02    -0.04   0.04   0.02     0.06  -0.09  -0.01
     3   6     0.03   0.15  -0.06    -0.05  -0.01   0.00     0.09   0.08   0.02
     4   6     0.03   0.10  -0.04    -0.03  -0.06   0.03     0.01   0.01   0.03
     5   1     0.02   0.00   0.02    -0.02  -0.05   0.07    -0.07  -0.13  -0.03
     6   1     0.03   0.11  -0.04    -0.02  -0.11   0.05    -0.05   0.04   0.06
     7   6    -0.02   0.11  -0.03    -0.04   0.06   0.01     0.08   0.01   0.00
     8   1    -0.01   0.11  -0.03    -0.06   0.10  -0.03     0.15   0.01   0.01
     9   1    -0.09   0.12  -0.03    -0.02   0.09   0.06     0.02   0.02   0.00
    10   6     0.09   0.01  -0.01    -0.06  -0.01  -0.02     0.13  -0.12  -0.04
    11   1     0.13  -0.03   0.02    -0.07  -0.02  -0.05     0.16  -0.20  -0.06
    12   6     0.11   0.09  -0.05    -0.06  -0.05  -0.04     0.14  -0.01  -0.02
    13   1     0.17   0.11  -0.08    -0.08  -0.09  -0.08     0.20   0.01  -0.04
    14   1    -0.03  -0.01   0.05    -0.03   0.07   0.03     0.05  -0.14   0.00
    15   1     0.03   0.21  -0.10    -0.05  -0.02  -0.01     0.11   0.18   0.03
    16   7    -0.02   0.08   0.07     0.01   0.03   0.16    -0.05  -0.07   0.03
    17   7    -0.04   0.04   0.04    -0.01  -0.01   0.13    -0.04  -0.08   0.03
    18   6    -0.02  -0.08   0.06     0.01   0.03   0.08    -0.05  -0.05   0.01
    19   6    -0.05   0.02   0.00    -0.01  -0.02   0.01    -0.02  -0.01   0.02
    20   8    -0.09   0.01  -0.05    -0.04   0.00  -0.19     0.09   0.04  -0.09
    21   8    -0.05  -0.35   0.09    -0.07   0.08   0.00    -0.06   0.00  -0.01
    22   8    -0.01  -0.02   0.01     0.02  -0.06   0.10    -0.12   0.06   0.10
    23   8     0.03   0.08   0.00     0.15  -0.02   0.04    -0.04  -0.06   0.01
    24   6     0.05  -0.16  -0.02     0.17   0.08  -0.17    -0.04   0.03  -0.03
    25   1     0.12  -0.51   0.07     0.31   0.15  -0.20    -0.04   0.08  -0.04
    26   1     0.09   0.01   0.21     0.03   0.06  -0.29    -0.10   0.02  -0.07
    27   1    -0.05  -0.14  -0.34     0.19   0.09  -0.18     0.00   0.04   0.01
    28   6    -0.02  -0.07  -0.03     0.02  -0.06  -0.15    -0.08   0.29  -0.05
    29   1    -0.02  -0.03   0.00     0.16   0.08  -0.07     0.12   0.38  -0.02
    30   1    -0.07  -0.13  -0.02    -0.17  -0.24  -0.14    -0.12   0.28  -0.05
    31   1     0.02  -0.07  -0.11     0.06  -0.03  -0.42    -0.22   0.38  -0.16
                     10                     11                     12
                      A                      A                      A
 Frequencies --    132.2430               154.8682               175.5680
 Red. masses --      3.9545                 4.9292                 4.6973
 Frc consts  --      0.0407                 0.0697                 0.0853
 IR Inten    --      1.9462                10.9733                 1.9604
  Atom  AN      X      Y      Z        X      Y      Z        X      Y      Z
     1   6     0.10   0.02   0.02    -0.02  -0.05  -0.04     0.19   0.07  -0.03
     2   6     0.04   0.06   0.00    -0.01  -0.11   0.02     0.10   0.07  -0.02
     3   6     0.02  -0.12  -0.01     0.00  -0.08   0.00     0.06  -0.21  -0.04
     4   6     0.08  -0.08  -0.02    -0.01  -0.04  -0.02     0.18  -0.04  -0.10
     5   1     0.15   0.03   0.05    -0.03  -0.06  -0.04     0.28   0.07   0.05
     6   1     0.13  -0.12  -0.02    -0.02  -0.02  -0.03     0.26  -0.05  -0.16
     7   6     0.03  -0.03   0.00    -0.02  -0.11   0.01     0.08  -0.11  -0.03
     8   1    -0.03  -0.02  -0.01    -0.01  -0.11   0.01    -0.04  -0.11  -0.02
     9   1     0.11  -0.04   0.01    -0.03  -0.09   0.02     0.19  -0.13  -0.03
    10   6    -0.03   0.05   0.01     0.01  -0.11   0.02     0.01   0.13   0.04
    11   1    -0.07   0.11   0.00     0.02  -0.10   0.05    -0.05   0.22   0.06
    12   6    -0.04  -0.06   0.00     0.01  -0.05   0.03    -0.01  -0.03   0.03
    13   1    -0.10  -0.09   0.00     0.03  -0.02   0.07    -0.10  -0.03   0.10
    14   1     0.06   0.13   0.00    -0.02  -0.15   0.02     0.12   0.15  -0.02
    15   1     0.00  -0.21  -0.02     0.00  -0.07   0.00     0.04  -0.37  -0.05
    16   7    -0.05   0.02  -0.04     0.01   0.07   0.06    -0.03   0.10   0.04
    17   7     0.04   0.02   0.03    -0.03  -0.03   0.00    -0.06   0.05   0.00
    18   6    -0.04   0.07  -0.06     0.01   0.15   0.06    -0.04  -0.01   0.07
    19   6     0.02  -0.01   0.08    -0.02  -0.04  -0.06    -0.08   0.00  -0.03
    20   8     0.02   0.01  -0.02     0.00  -0.03  -0.04    -0.12  -0.01  -0.01
    21   8    -0.03   0.00  -0.04    -0.01   0.11   0.05    -0.06  -0.05   0.06
    22   8     0.02  -0.04   0.21    -0.07   0.02  -0.14    -0.10   0.02  -0.07
    23   8    -0.09   0.18  -0.08     0.08   0.31   0.00     0.01  -0.13   0.09
    24   6    -0.10  -0.11   0.08     0.12  -0.15  -0.05     0.02   0.05  -0.05
    25   1    -0.16  -0.25   0.12     0.25  -0.34  -0.01     0.09   0.15  -0.08
    26   1     0.10  -0.10   0.22     0.32  -0.17   0.05    -0.12   0.04  -0.16
    27   1    -0.24  -0.17   0.02    -0.17  -0.25  -0.22     0.11   0.08  -0.02
    28   6     0.03   0.03  -0.16    -0.06   0.10   0.09    -0.10   0.09   0.03
    29   1     0.27   0.11  -0.15    -0.14   0.08   0.10    -0.11   0.10   0.04
    30   1    -0.21  -0.05  -0.20     0.13   0.16   0.13     0.00   0.12   0.05
    31   1     0.04   0.07  -0.37    -0.15   0.11   0.21    -0.16   0.11   0.08
                     13                     14                     15
                      A                      A                      A
 Frequencies --    187.0403               210.4969               256.7461
 Red. masses --      4.6049                 6.8381                 4.7700
 Frc consts  --      0.0949                 0.1785                 0.1853
 IR Inten    --      2.2727                15.7077                27.3771
  Atom  AN      X      Y      Z        X      Y      Z        X      Y      Z
     1   6     0.08   0.00   0.20     0.05  -0.04   0.03     0.02  -0.02   0.03
     2   6     0.01   0.18   0.07     0.03  -0.04   0.07     0.02   0.03  -0.02
     3   6     0.00   0.05   0.01     0.03  -0.07  -0.01     0.02   0.00  -0.01
     4   6     0.07  -0.10   0.12     0.04  -0.12   0.02     0.03   0.00   0.00
     5   1     0.15   0.03   0.24     0.05  -0.11   0.04     0.04   0.02   0.04
     6   1     0.11  -0.22   0.17     0.05  -0.17   0.04     0.04  -0.01  -0.01
     7   6     0.00   0.24   0.06     0.01  -0.01   0.03     0.02   0.00  -0.01
     8   1    -0.05   0.32  -0.04    -0.02   0.03  -0.02     0.01   0.00   0.00
     9   1     0.04   0.27   0.12     0.01   0.02   0.08     0.04  -0.01  -0.03
    10   6    -0.03   0.10  -0.01     0.05  -0.15  -0.03     0.00   0.06   0.01
    11   1    -0.05   0.08  -0.06     0.06  -0.16  -0.03     0.00   0.06   0.00
    12   6    -0.03  -0.06  -0.08     0.04  -0.12  -0.03     0.01   0.00  -0.01
    13   1    -0.07  -0.17  -0.22     0.06  -0.13  -0.06    -0.01  -0.01  -0.03
    14   1     0.02   0.28   0.10     0.02  -0.03   0.09     0.03   0.06  -0.01
    15   1    -0.01   0.02  -0.03     0.03  -0.07  -0.03     0.02  -0.01  -0.01
    16   7    -0.01  -0.13  -0.02    -0.08   0.07   0.12    -0.05  -0.17  -0.10
    17   7     0.01  -0.07   0.03    -0.01   0.03   0.16    -0.04  -0.04  -0.04
    18   6    -0.01  -0.02  -0.03    -0.09   0.00  -0.02    -0.08  -0.02   0.08
    19   6     0.01  -0.11  -0.06     0.03   0.19   0.02    -0.01   0.06   0.01
    20   8     0.03  -0.10  -0.05     0.09   0.23  -0.13     0.16   0.11   0.03
    21   8     0.00   0.00  -0.04    -0.19  -0.03  -0.09     0.11   0.06   0.21
    22   8    -0.05  -0.04  -0.17     0.13   0.18  -0.19    -0.02   0.08   0.02
    23   8    -0.03   0.04  -0.04    -0.09  -0.02  -0.02    -0.11   0.04   0.10
    24   6    -0.03  -0.03   0.00    -0.11   0.02   0.06    -0.04  -0.07  -0.24
    25   1    -0.05  -0.06   0.01    -0.18   0.02   0.06     0.28  -0.08  -0.27
    26   1     0.02  -0.02   0.04    -0.09   0.02   0.08    -0.15  -0.11  -0.36
    27   1    -0.07  -0.04  -0.01    -0.07   0.03   0.09    -0.18  -0.11  -0.39
    28   6    -0.04   0.07   0.06     0.08  -0.15   0.05    -0.05  -0.13  -0.03
    29   1    -0.10   0.07   0.08    -0.23  -0.24   0.06    -0.14  -0.18  -0.05
    30   1     0.16   0.12   0.10     0.16  -0.19   0.09    -0.15  -0.19  -0.04
    31   1    -0.15   0.10   0.16     0.28  -0.27   0.17     0.12  -0.21  -0.05
                     16                     17                     18
                      A                      A                      A
 Frequencies --    289.0750               307.8546               343.0337
 Red. masses --      6.4120                 4.6505                10.3387
 Frc consts  --      0.3157                 0.2597                 0.7168
 IR Inten    --      4.6647                 1.3888                20.4701
  Atom  AN      X      Y      Z        X      Y      Z        X      Y      Z
     1   6    -0.04  -0.04  -0.01     0.04   0.02   0.01     0.01   0.00  -0.04
     2   6     0.01   0.02  -0.16     0.01   0.02   0.07    -0.04  -0.04   0.03
     3   6    -0.01   0.02  -0.03     0.02  -0.03   0.01    -0.04   0.00   0.03
     4   6     0.02   0.16  -0.09     0.02  -0.06   0.03    -0.01  -0.01   0.03
     5   1    -0.04  -0.01   0.02     0.06   0.02   0.02     0.01   0.08  -0.05
     6   1     0.03   0.27  -0.19     0.03  -0.11   0.06    -0.02   0.01   0.03
     7   6     0.03  -0.10  -0.09     0.00   0.06   0.04    -0.03   0.11   0.04
     8   1     0.04  -0.20   0.02    -0.02   0.11  -0.02     0.03   0.24  -0.10
     9   1     0.07  -0.17  -0.20     0.00   0.09   0.09    -0.05   0.22   0.20
    10   6    -0.04   0.27   0.06     0.02  -0.08  -0.01    -0.03   0.00   0.06
    11   1    -0.06   0.28   0.04     0.02  -0.08  -0.01    -0.02   0.02   0.08
    12   6    -0.02   0.16   0.05     0.01  -0.06  -0.02    -0.03   0.00   0.05
    13   1    -0.09   0.18   0.12     0.02  -0.08  -0.04    -0.02   0.00   0.04
    14   1     0.03   0.06  -0.18     0.00   0.02   0.09    -0.07  -0.11   0.03
    15   1    -0.01  -0.02   0.00     0.01  -0.03  -0.01    -0.05  -0.03   0.01
    16   7    -0.01  -0.15   0.15     0.05   0.02  -0.03    -0.05   0.53  -0.01
    17   7    -0.02  -0.16   0.12    -0.06  -0.01  -0.13     0.04  -0.10  -0.18
    18   6    -0.01  -0.05   0.04     0.08   0.00  -0.03    -0.06   0.19   0.01
    19   6     0.01  -0.08   0.03    -0.10   0.05  -0.06     0.06  -0.19  -0.07
    20   8     0.25  -0.01  -0.02     0.08   0.08   0.07     0.42  -0.10   0.01
    21   8    -0.18   0.01  -0.10     0.03   0.00  -0.07    -0.09  -0.10   0.06
    22   8    -0.05  -0.01  -0.05    -0.19   0.10   0.07    -0.02  -0.13   0.00
    23   8     0.06   0.05  -0.01     0.13   0.01  -0.06    -0.09  -0.11   0.08
    24   6     0.04   0.01   0.12     0.11   0.03   0.12    -0.08   0.00  -0.08
    25   1    -0.07  -0.01   0.14    -0.07   0.02   0.14     0.05   0.06  -0.10
    26   1     0.13   0.02   0.19     0.18   0.05   0.20    -0.20   0.00  -0.16
    27   1     0.04   0.00   0.16     0.16   0.05   0.19    -0.04   0.02  -0.09
    28   6    -0.06  -0.08  -0.01    -0.25  -0.15  -0.05     0.00  -0.03  -0.01
    29   1    -0.13  -0.11  -0.01    -0.33  -0.21  -0.08     0.05  -0.01  -0.01
    30   1    -0.06  -0.10   0.00    -0.42  -0.23  -0.08     0.02  -0.02  -0.01
    31   1     0.00  -0.11   0.01     0.00  -0.25  -0.10    -0.07   0.00  -0.02
                     19                     20                     21
                      A                      A                      A
 Frequencies --    415.4718               437.6448               488.5268
 Red. masses --      2.0111                 8.3381                 2.8811
 Frc consts  --      0.2045                 0.9409                 0.4051
 IR Inten    --      6.5154                 7.9424                22.1343
  Atom  AN      X      Y      Z        X      Y      Z        X      Y      Z
     1   6    -0.02  -0.03  -0.04    -0.04  -0.05  -0.02    -0.03  -0.02   0.03
     2   6    -0.01  -0.09  -0.02     0.00  -0.04  -0.04     0.02   0.20   0.10
     3   6    -0.02  -0.12  -0.01    -0.02  -0.07  -0.01    -0.02  -0.08  -0.01
     4   6     0.02   0.03  -0.08     0.00   0.05  -0.06     0.00   0.09  -0.08
     5   1     0.01  -0.01  -0.02    -0.06  -0.11  -0.01     0.00  -0.06   0.04
     6   1     0.04   0.13  -0.17     0.01   0.16  -0.15     0.04   0.20  -0.20
     7   6     0.03   0.17   0.01     0.01   0.05  -0.01    -0.03  -0.01   0.02
     8   1     0.10   0.51  -0.35     0.04   0.19  -0.16    -0.26  -0.07   0.10
     9   1     0.05   0.41   0.37     0.03   0.15   0.14     0.12  -0.10  -0.06
    10   6     0.00  -0.01   0.05     0.00   0.01   0.01     0.02  -0.17  -0.16
    11   1    -0.01   0.00   0.04    -0.01  -0.02  -0.02     0.01  -0.42  -0.47
    12   6    -0.01   0.02   0.09    -0.01   0.05   0.08     0.00   0.08   0.11
    13   1    -0.01   0.10   0.20    -0.01   0.11   0.18     0.01   0.22   0.33
    14   1    -0.03  -0.18  -0.03    -0.01  -0.08  -0.04     0.02   0.22   0.09
    15   1    -0.04  -0.26  -0.02    -0.03  -0.15  -0.01    -0.04  -0.16  -0.02
    16   7     0.00  -0.07  -0.02     0.03   0.15   0.25     0.00  -0.04  -0.02
    17   7    -0.03  -0.02  -0.03     0.10  -0.01   0.28     0.02   0.09   0.01
    18   6     0.00  -0.02   0.02     0.08  -0.04  -0.20     0.01   0.00   0.02
    19   6     0.00   0.02  -0.01    -0.01  -0.06   0.15    -0.01  -0.04  -0.01
    20   8    -0.02   0.01   0.01    -0.01  -0.03  -0.07     0.07  -0.02   0.00
    21   8    -0.04   0.00  -0.01     0.39   0.02   0.02    -0.02   0.00  -0.01
    22   8     0.03   0.00   0.01    -0.12   0.05  -0.06    -0.01  -0.04  -0.01
    23   8     0.01   0.01   0.01    -0.09  -0.04  -0.17    -0.01   0.00   0.02
    24   6     0.02   0.00   0.01    -0.14  -0.03  -0.09     0.00   0.00   0.00
    25   1     0.01   0.00   0.01    -0.18  -0.03  -0.09     0.02   0.00   0.00
    26   1     0.02   0.00   0.01    -0.11  -0.03  -0.08    -0.01   0.00  -0.01
    27   1     0.01   0.00   0.01    -0.12  -0.02  -0.08    -0.01  -0.01  -0.01
    28   6     0.03   0.01   0.00    -0.17  -0.03   0.00    -0.01   0.00   0.00
    29   1     0.05   0.02   0.00    -0.26  -0.07  -0.01     0.01   0.01   0.00
    30   1     0.03   0.02   0.00    -0.17  -0.07   0.00     0.01   0.00   0.00
    31   1     0.02   0.02   0.00    -0.05  -0.09   0.02    -0.04   0.01   0.00
                     22                     23                     24
                      A                      A                      A
 Frequencies --    541.3187               565.5791               605.5940
 Red. masses --      8.0448                 7.0503                 6.8723
 Frc consts  --      1.3889                 1.3287                 1.4850
 IR Inten    --     36.3275                29.1014                40.4860
  Atom  AN      X      Y      Z        X      Y      Z        X      Y      Z
     1   6    -0.01   0.10  -0.14     0.00   0.10  -0.13     0.07  -0.11   0.09
     2   6     0.00  -0.08  -0.01     0.01   0.01   0.04    -0.03  -0.06  -0.08
     3   6     0.01   0.01   0.00     0.02   0.00   0.00    -0.05   0.05   0.01
     4   6    -0.09  -0.03  -0.02    -0.04  -0.03  -0.01     0.09   0.02   0.06
     5   1    -0.07   0.14  -0.20    -0.07   0.13  -0.18     0.09  -0.07   0.08
     6   1    -0.15  -0.08   0.07    -0.10  -0.10   0.11     0.15   0.08  -0.03
     7   6     0.03   0.01  -0.01     0.01   0.01   0.01    -0.05   0.00  -0.03
     8   1     0.13   0.12  -0.13     0.02   0.04  -0.02     0.03  -0.02  -0.02
     9   1    -0.03   0.12   0.13    -0.02   0.04   0.05    -0.07  -0.01  -0.05
    10   6     0.02  -0.02   0.06     0.02  -0.01   0.05    -0.03  -0.01  -0.08
    11   1     0.03   0.18   0.30     0.03   0.11   0.19    -0.05  -0.14  -0.25
    12   6     0.00  -0.07  -0.05     0.01  -0.04  -0.04    -0.02   0.08   0.10
    13   1     0.05  -0.08  -0.10     0.04  -0.04  -0.06    -0.06   0.08   0.12
    14   1    -0.01  -0.19  -0.04    -0.01  -0.09   0.01    -0.04   0.09   0.02
    15   1     0.03   0.08   0.05     0.02   0.02   0.02    -0.07  -0.01  -0.05
    16   7    -0.05  -0.16  -0.21     0.28  -0.03   0.17     0.10   0.02  -0.12
    17   7     0.20   0.42   0.19     0.08   0.15   0.02     0.23  -0.17  -0.07
    18   6    -0.05   0.19   0.00     0.19  -0.21   0.10     0.09   0.16   0.03
    19   6     0.02  -0.14   0.20     0.05   0.00  -0.23     0.20  -0.01   0.17
    20   8     0.12  -0.07  -0.07     0.03  -0.06   0.07    -0.17  -0.09  -0.08
    21   8    -0.07  -0.07   0.03    -0.10   0.03  -0.18    -0.11  -0.07  -0.07
    22   8    -0.09  -0.03  -0.07    -0.05  -0.01   0.06    -0.04   0.24   0.01
    23   8     0.04  -0.04   0.05    -0.17   0.09   0.15    -0.05   0.00   0.15
    24   6     0.06   0.01   0.03    -0.18  -0.03  -0.09    -0.03   0.00  -0.01
    25   1     0.04   0.03   0.03     0.22  -0.04  -0.12     0.21   0.01  -0.04
    26   1     0.03   0.02   0.02    -0.27  -0.07  -0.21    -0.12  -0.03  -0.10
    27   1     0.08   0.02   0.05    -0.31  -0.07  -0.23    -0.09  -0.02  -0.09
    28   6    -0.14  -0.02   0.00    -0.07  -0.01   0.00    -0.11  -0.01  -0.01
    29   1    -0.17  -0.03   0.00    -0.06  -0.02  -0.01    -0.28  -0.10  -0.03
    30   1    -0.10  -0.03   0.01    -0.11  -0.02  -0.01    -0.26  -0.10  -0.02
    31   1    -0.10  -0.04   0.02    -0.02  -0.03  -0.03     0.26  -0.19  -0.01
                     25                     26                     27
                      A                      A                      A
 Frequencies --    638.5278               663.7087               673.1608
 Red. masses --      4.8882                10.1514                 6.1328
 Frc consts  --      1.1743                 2.6347                 1.6374
 IR Inten    --     12.0633                24.5947                14.6878
  Atom  AN      X      Y      Z        X      Y      Z        X      Y      Z
     1   6    -0.21   0.04  -0.08    -0.04   0.02   0.22     0.10   0.06  -0.05
     2   6     0.04   0.25   0.07     0.07  -0.07  -0.09     0.06   0.01  -0.14
     3   6     0.00  -0.18  -0.02    -0.12  -0.07  -0.04    -0.26  -0.03  -0.01
     4   6    -0.20  -0.04  -0.04    -0.07  -0.02   0.08    -0.01  -0.13   0.29
     5   1    -0.37   0.06  -0.17    -0.13  -0.07   0.16    -0.13   0.02  -0.21
     6   1    -0.30   0.08  -0.05     0.10   0.04  -0.12     0.07  -0.15   0.23
     7   6     0.02   0.01   0.02    -0.01  -0.05  -0.14    -0.15   0.02  -0.23
     8   1    -0.30   0.04   0.01    -0.01   0.05  -0.25    -0.13   0.06  -0.29
     9   1     0.30  -0.05   0.02     0.10   0.02  -0.02    -0.04   0.01  -0.21
    10   6     0.18   0.11   0.10     0.09   0.05  -0.05     0.20   0.07  -0.08
    11   1     0.21   0.19   0.23     0.06   0.02  -0.10     0.12   0.08  -0.18
    12   6     0.16  -0.12  -0.04     0.07  -0.01   0.06     0.12  -0.01   0.26
    13   1     0.21  -0.07   0.01     0.07  -0.01   0.07     0.14  -0.04   0.19
    14   1     0.01   0.03   0.01     0.04   0.03   0.01    -0.08  -0.07   0.08
    15   1     0.04   0.04   0.03    -0.09   0.07  -0.02    -0.28   0.06  -0.16
    16   7     0.00   0.01  -0.02     0.03  -0.15   0.11    -0.02   0.04  -0.02
    17   7     0.04  -0.16  -0.03    -0.05   0.04   0.15     0.00   0.05  -0.01
    18   6     0.00   0.05  -0.01     0.01   0.53  -0.14    -0.03  -0.17   0.04
    19   6     0.06  -0.01   0.06     0.02   0.10  -0.47    -0.03  -0.01   0.05
    20   8    -0.06  -0.03  -0.03    -0.01  -0.01   0.13     0.02   0.02  -0.01
    21   8    -0.01  -0.01   0.00     0.04  -0.15   0.01    -0.01   0.05   0.01
    22   8     0.00   0.07   0.00     0.00   0.00   0.09     0.00  -0.04  -0.02
    23   8     0.00  -0.01   0.01    -0.01  -0.10   0.01     0.01   0.03  -0.02
    24   6     0.01   0.00   0.00    -0.04  -0.01  -0.02     0.01   0.00   0.00
    25   1     0.02   0.00   0.00    -0.01   0.02  -0.03    -0.03  -0.01   0.01
    26   1     0.00   0.00   0.00    -0.06  -0.02  -0.04     0.03   0.01   0.03
    27   1     0.00   0.00   0.00    -0.02   0.00  -0.01     0.02   0.01   0.02
    28   6     0.00   0.00   0.00     0.01   0.00   0.00     0.00   0.00   0.00
    29   1    -0.05  -0.03  -0.01     0.03   0.00   0.00     0.03   0.01   0.00
    30   1    -0.04  -0.03  -0.01    -0.01  -0.01   0.00     0.03   0.01   0.00
    31   1     0.10  -0.05   0.00     0.01   0.00  -0.03    -0.06   0.03   0.01
                     28                     29                     30
                      A                      A                      A
 Frequencies --    719.5978               741.9486               744.5501
 Red. masses --      5.9537                 5.8976                 7.3582
 Frc consts  --      1.8164                 1.9128                 2.4033
 IR Inten    --     16.4186                45.8389                93.9039
  Atom  AN      X      Y      Z        X      Y      Z        X      Y      Z
     1   6    -0.10   0.10   0.34    -0.05   0.10   0.28     0.01   0.01  -0.06
     2   6     0.28  -0.11   0.10    -0.22  -0.13  -0.16     0.04   0.04   0.02
     3   6    -0.11  -0.02  -0.12     0.06  -0.20   0.06    -0.02   0.03  -0.01
     4   6    -0.16   0.03  -0.05    -0.06   0.07   0.03     0.02  -0.03   0.02
     5   1    -0.12   0.05   0.30     0.07  -0.02   0.36     0.02  -0.02  -0.05
     6   1     0.09   0.01  -0.26     0.05   0.12  -0.12     0.00  -0.05   0.05
     7   6     0.17  -0.04  -0.23    -0.04  -0.11   0.16    -0.01   0.01  -0.03
     8   1     0.10   0.07  -0.34     0.04   0.10  -0.08    -0.04  -0.03   0.02
     9   1     0.12   0.02  -0.17     0.11   0.05   0.43    -0.01  -0.01  -0.07
    10   6    -0.07  -0.07   0.12     0.11   0.14  -0.22     0.00  -0.01   0.04
    11   1    -0.13  -0.10  -0.03     0.27   0.00  -0.08    -0.03  -0.01  -0.02
    12   6    -0.07   0.01  -0.06     0.15  -0.01  -0.13    -0.02  -0.01   0.03
    13   1     0.10   0.05  -0.12    -0.06  -0.02   0.03     0.01  -0.03  -0.03
    14   1     0.33   0.01   0.05    -0.19   0.02  -0.10     0.02  -0.04   0.01
    15   1    -0.02   0.05   0.15     0.09   0.06   0.01    -0.03   0.01  -0.02
    16   7     0.02   0.08  -0.05     0.04   0.06  -0.04     0.11  -0.09   0.06
    17   7     0.01   0.03  -0.05    -0.01   0.08  -0.03    -0.13  -0.07  -0.10
    18   6     0.02  -0.12   0.03     0.04  -0.08   0.02     0.22   0.25  -0.07
    19   6     0.00  -0.02   0.09    -0.04   0.00   0.08    -0.24   0.03   0.32
    20   8     0.01   0.00  -0.02     0.02   0.04  -0.01     0.02   0.20  -0.04
    21   8    -0.01   0.03  -0.03     0.00   0.01  -0.05     0.06  -0.10  -0.17
    22   8    -0.01  -0.01  -0.02    -0.01  -0.05  -0.02     0.00  -0.19  -0.09
    23   8    -0.01   0.03   0.02    -0.01   0.02   0.03    -0.06  -0.01   0.15
    24   6     0.00   0.00   0.00    -0.01   0.00   0.00    -0.05   0.00   0.00
    25   1     0.05   0.00   0.00     0.08   0.00  -0.01     0.33   0.01  -0.05
    26   1    -0.01   0.00  -0.01    -0.03  -0.01  -0.03    -0.15  -0.05  -0.13
    27   1    -0.01   0.00  -0.02    -0.03   0.00  -0.03    -0.15  -0.04  -0.13
    28   6    -0.01   0.00   0.00    -0.01  -0.01   0.00     0.04  -0.02   0.00
    29   1    -0.01   0.00   0.00     0.04   0.02   0.00     0.22   0.08   0.02
    30   1    -0.01   0.00   0.00     0.03   0.02   0.00     0.20   0.09   0.01
    31   1    -0.02   0.00   0.00    -0.11   0.04   0.01    -0.37   0.18   0.03
                     31                     32                     33
                      A                      A                      A
 Frequencies --    865.2383               869.4008               881.3700
 Red. masses --      1.7246                 1.6714                 1.5787
 Frc consts  --      0.7607                 0.7443                 0.7225
 IR Inten    --      2.1508                22.7902                58.2654
  Atom  AN      X      Y      Z        X      Y      Z        X      Y      Z
     1   6     0.02  -0.01   0.03    -0.02   0.01   0.01     0.08  -0.06  -0.04
     2   6    -0.01   0.01  -0.03    -0.01  -0.01   0.02     0.02   0.04   0.03
     3   6     0.01   0.08   0.01     0.13  -0.03  -0.11    -0.03  -0.03   0.01
     4   6    -0.05  -0.08  -0.13    -0.04  -0.09   0.03    -0.02   0.06   0.07
     5   1     0.22   0.00   0.17    -0.02   0.06   0.00    -0.02  -0.03  -0.12
     6   1     0.04   0.02  -0.27    -0.18  -0.44   0.43     0.00   0.18  -0.05
     7   6     0.00   0.03   0.00    -0.01  -0.03  -0.02    -0.02  -0.10  -0.02
     8   1     0.06  -0.02   0.05    -0.10   0.09  -0.13     0.00   0.24  -0.34
     9   1    -0.03   0.00  -0.05    -0.12   0.06   0.07     0.06   0.14   0.34
    10   6     0.01   0.00  -0.03    -0.04   0.02   0.01    -0.08  -0.07  -0.03
    11   1    -0.10   0.29   0.11     0.01  -0.08  -0.02    -0.03   0.24   0.36
    12   6     0.01  -0.13   0.10     0.01   0.11   0.00     0.04   0.04  -0.05
    13   1    -0.07   0.11   0.50    -0.05   0.40   0.50     0.08   0.05  -0.05
    14   1    -0.01   0.10   0.00     0.02   0.03  -0.01     0.11   0.47   0.04
    15   1     0.09   0.61   0.05     0.13   0.07  -0.14     0.04   0.38   0.06
    16   7     0.00   0.01  -0.01     0.00   0.00   0.00     0.00  -0.01   0.01
    17   7     0.00   0.00   0.00     0.00   0.00   0.00    -0.01  -0.01  -0.01
    18   6     0.00  -0.01   0.00     0.00   0.01   0.01     0.00   0.00   0.01
    19   6     0.00   0.00   0.00     0.00   0.00   0.00     0.00   0.00   0.01
    20   8     0.00   0.01   0.00     0.00   0.00   0.00     0.00   0.00   0.00
    21   8     0.00   0.00  -0.01     0.00   0.00   0.01     0.00   0.00   0.00
    22   8     0.00   0.00   0.00     0.00   0.00   0.00     0.00   0.00   0.00
    23   8     0.00   0.00   0.01     0.00   0.00  -0.01     0.00   0.00  -0.01
    24   6     0.00   0.00   0.00     0.00   0.00   0.00    -0.01   0.00  -0.01
    25   1     0.02   0.00   0.00    -0.03   0.00   0.00    -0.03   0.00   0.00
    26   1    -0.01   0.00   0.00     0.00   0.00   0.01     0.00   0.00   0.00
    27   1     0.00   0.00  -0.01     0.00   0.00   0.01     0.00   0.00   0.01
    28   6     0.00   0.00   0.00     0.00   0.00   0.00     0.01   0.00   0.00
    29   1     0.01   0.00   0.00     0.00   0.00   0.00     0.00   0.00   0.00
    30   1     0.00   0.00   0.00     0.00   0.00   0.00     0.01   0.00   0.00
    31   1    -0.01   0.00   0.00     0.00   0.00   0.00     0.01   0.00   0.00
                     34                     35                     36
                      A                      A                      A
 Frequencies --    909.0499               924.4247               934.8084
 Red. masses --      1.2848                 3.6504                 3.0209
 Frc consts  --      0.6255                 1.8379                 1.5554
 IR Inten    --     50.0214                65.2132                19.0169
  Atom  AN      X      Y      Z        X      Y      Z        X      Y      Z
     1   6     0.00  -0.05   0.04    -0.03  -0.01  -0.02    -0.04  -0.02   0.02
     2   6    -0.01   0.00  -0.01     0.00   0.01   0.00     0.00  -0.01  -0.01
     3   6    -0.01  -0.01   0.02     0.06   0.00  -0.06     0.04   0.00  -0.06
     4   6     0.00   0.04   0.01     0.01  -0.08   0.03     0.00  -0.07   0.03
     5   1    -0.02  -0.11   0.03    -0.17  -0.09  -0.09    -0.20  -0.01  -0.10
     6   1    -0.07  -0.06   0.16     0.08   0.18  -0.22     0.13   0.20  -0.29
     7   6     0.02   0.07  -0.03     0.00  -0.02   0.04     0.02   0.04   0.04
     8   1     0.00  -0.14   0.17    -0.04   0.05  -0.03    -0.05  -0.07   0.14
     9   1     0.03  -0.09  -0.24    -0.09   0.03   0.07    -0.02  -0.04  -0.09
    10   6     0.02  -0.07  -0.05    -0.05   0.01   0.02    -0.05  -0.02  -0.01
    11   1     0.09   0.43   0.58    -0.08  -0.04  -0.08    -0.04   0.12   0.13
    12   6    -0.01   0.01  -0.03     0.03   0.05   0.05     0.02   0.05   0.05
    13   1     0.03   0.19   0.22     0.03  -0.11  -0.20     0.05  -0.06  -0.14
    14   1    -0.02   0.07   0.03     0.07   0.11  -0.09     0.05   0.08  -0.08
    15   1    -0.07  -0.41   0.01     0.05   0.10  -0.11     0.02  -0.04  -0.11
    16   7    -0.02   0.01  -0.02    -0.16   0.05  -0.09     0.09   0.01  -0.03
    17   7     0.00   0.00   0.01     0.06  -0.04   0.11     0.16  -0.06   0.01
    18   6     0.00  -0.01  -0.02    -0.03  -0.10  -0.13    -0.02   0.01   0.07
    19   6     0.00   0.01  -0.01     0.01   0.05  -0.10     0.04   0.11  -0.02
    20   8     0.00   0.01   0.00    -0.01   0.03   0.02    -0.03   0.11   0.02
    21   8     0.01   0.00  -0.02     0.07  -0.01  -0.11    -0.06   0.02   0.07
    22   8     0.00  -0.01   0.00     0.01  -0.04   0.01     0.02  -0.13  -0.02
    23   8    -0.01   0.01   0.02    -0.07   0.04   0.16     0.03  -0.01  -0.07
    24   6     0.02   0.00   0.01     0.15   0.03   0.11    -0.06  -0.02  -0.05
    25   1     0.09   0.00   0.00     0.67   0.04   0.02    -0.35  -0.01   0.00
    26   1    -0.01  -0.01  -0.02    -0.07  -0.04  -0.11     0.05   0.02   0.07
    27   1    -0.01   0.00  -0.02    -0.03  -0.01  -0.11     0.05   0.01   0.07
    28   6     0.00   0.00   0.00    -0.04  -0.01  -0.01    -0.15  -0.05  -0.02
    29   1     0.01   0.00   0.00     0.01   0.03   0.02     0.10   0.08   0.03
    30   1     0.01   0.00   0.00     0.07   0.02   0.01     0.12   0.08   0.01
    31   1    -0.03   0.01   0.00    -0.18   0.06   0.01    -0.57   0.18   0.02
                     37                     38                     39
                      A                      A                      A
 Frequencies --    950.0832               983.5372              1000.0504
 Red. masses --      2.4523                 1.5521                 1.2994
 Frc consts  --      1.3042                 0.8846                 0.7657
 IR Inten    --     23.4041                 6.0155                 8.4530
  Atom  AN      X      Y      Z        X      Y      Z        X      Y      Z
     1   6     0.05  -0.03  -0.01     0.07   0.00  -0.03     0.00  -0.02  -0.01
[...]
 000761,-0.00003311,0.00002274,-0.00004160,0.00004623,-0.00004968,0.000
 03195,-0.00001688,0.00002287,-0.00002851,0.00000035,0.00131169,-0.0000
 0696,-0.00062486,-0.00066439,-0.00076084,0.00104943,-0.00233113,-0.000
 68890,-0.00274721,-0.00013421,0.00015253,0.00012349,0.00014519,-0.0001
 6316,-0.00007886,0.00007021,0.00025984,0.00091605,0.00013286,-0.000065
 24,-0.00001955,-0.01690311,-0.00444604,-0.01196686,-0.01140424,-0.0436
 0344,-0.20517512,0.02471396,0.05470959,0.24658171,0.00013406,0.0007770
 7,-0.00005554,0.00000188,-0.00016002,-0.00002067,-0.00001339,0.0000333
 9,0.00001035,-0.00000421,0.00001896,-0.00001374,-0.00001214,-0.0000349
 7,0.00005656,-0.00004446,-0.00000741,0.00001309,0.00000642,0.00000853,
 0.00004008,-0.00000314,-0.00001056,-0.00001641,-0.00000498,-0.00000047
 ,-0.00001634,0.00006104,-0.00013437,-0.00017489,-0.00004704,-0.0000005
 4,0.00005184,-0.00004655,-0.00002305,-0.00000298,0.00000721,-0.0000236
 7,0.00001309,-0.00002833,0.00002049,-0.00001040,0.00001494,-0.00001703
 ,-0.00000859,0.00094409,0.00061001,-0.00041321,-0.00030519,-0.00025030
 ,0.00069044,-0.00255552,-0.00253497,0.00064267,0.00003806,-0.00005487,
 -0.00004731,0.00008465,-0.00006705,-0.00001039,0.00000863,0.00007519,0
 .00058129,0.00003037,-0.00003342,0.00000169,-0.03477534,-0.02276524,0.
 01218058,-0.05261340,-0.04131922,0.03373910,0.00374293,-0.00087043,0.0
 0272352,0.07964676,0.00013623,0.00079875,-0.00009194,0.00000927,-0.000
 18356,-0.00001774,-0.00001211,0.00001608,0.00000312,-0.00002694,0.0000
 3713,-0.00002419,-0.00002291,-0.00003299,0.00007597,-0.00001226,-0.000
 01641,0.00004035,0.00001199,0.00002254,0.00005941,-0.00000571,-0.00001
 392,-0.00002346,-0.00001031,-0.00000191,-0.00003084,0.00006505,-0.0001
 4306,-0.00019708,-0.00006067,-0.00000564,0.00006352,-0.00003378,0.0000
 0614,-0.00002162,0.00001288,-0.00002974,0.00002525,-0.00004030,0.00002
 376,-0.00001737,0.00000935,-0.00002249,-0.00000419,0.00100684,-0.00000
 069,-0.00021045,-0.00039472,-0.00042244,0.00062406,-0.00285545,-0.0003
 3634,-0.00200083,-0.00015907,0.00020386,0.00008850,0.00012978,-0.00019
 540,-0.00005081,0.00044641,-0.00012863,0.00055191,0.00011721,-0.000076
 79,-0.00001014,-0.01012048,-0.00199339,0.00361818,-0.04711195,-0.12963
 341,0.07817593,0.00040948,0.00438569,0.00155781,0.06191677,0.15008505,
 -0.00002743,-0.00022179,0.00000957,-0.00000189,0.00006073,0.00001396,0
 .00002106,0.00000800,-0.00000249,0.00000028,-0.00003520,-0.00000784,0.
 00000435,0.00001630,-0.00001630,0.00001165,0.00002182,0.00000420,0.000
 00599,-0.00000352,-0.00004423,-0.00000201,0.00000248,0.00001364,-0.000
 00791,-0.00000828,0.00002444,-0.00002148,0.00003562,0.00005935,0.00001
 919,0.00000218,-0.00001852,0.00000790,-0.00000138,0.00000887,-0.000003
 86,0.00000848,-0.00000818,0.00001224,-0.00000724,0.00000715,-0.0000200
 1,-0.00000054,0.00001099,-0.00016643,0.00022473,-0.00040829,0.00018323
 ,0.00012529,-0.00006057,-0.00180233,-0.00061561,0.00402382,0.00010900,
 -0.00003475,-0.00005223,-0.00004018,0.00003811,0.00000436,0.00129046,0
 .00042269,-0.00062870,-0.00005496,0.00000137,-0.00000643,0.00076382,-0
 .00130856,0.00185989,0.04015360,0.08001814,-0.10091801,0.00703356,0.01
 519624,-0.02005046,-0.04690189,-0.09499196,0.11204105,0.00005531,0.000
 31803,-0.00005333,0.00000248,-0.00007914,-0.00000117,-0.00001336,0.000
 00817,0.00000681,0.00002957,0.00007693,-0.00000781,-0.00000678,-0.0000
 1519,0.00003192,-0.00019124,-0.00012973,0.00008586,0.00000651,0.000037
 14,0.00003694,0.00000224,-0.00001227,-0.00001321,-0.00000241,-0.000016
 05,-0.00001731,0.00001779,-0.00005844,-0.00008170,-0.00002635,-0.00000
 647,0.00002489,-0.00000076,0.00003416,-0.00002531,0.00001619,-0.000019
 93,0.00001812,-0.00001689,0.00000472,-0.00000757,0.00004726,-0.0000022
 0,-0.00000317,0.00100362,-0.00067644,0.00061640,-0.00032172,-0.0002199
 6,0.00002718,-0.00272052,0.00255246,-0.00083429,-0.00009206,0.00009714
 ,0.00006717,0.00004346,-0.00004177,-0.00001940,-0.00008453,0.00027947,
 0.00051785,0.00008635,-0.00001585,-0.00000198,-0.03732916,0.02315543,0
 .00075545,-0.06101783,0.06129246,0.01295818,0.00351341,0.00244564,0.00
 234797,0.00574886,-0.00337727,-0.00057732,0.09126928,-0.00018319,-0.00
 145020,0.00012939,0.00004580,0.00029982,0.00003099,0.00010188,-0.00003
 721,-0.00002581,0.00012059,-0.00001518,0.00007796,0.00002422,0.0000861
 9,-0.00009225,-0.00013573,-0.00003243,-0.00000802,0.00002000,-0.000011
 82,-0.00006165,0.00000118,0.00000777,0.00001825,-0.00000918,0.00000816
 ,0.00001507,-0.00014226,0.00028531,0.00032641,0.00008200,-0.00001165,-
 0.00009489,0.00013342,0.00008629,0.00001741,-0.00002309,0.00002558,-0.
 00003070,0.00003014,-0.00002788,0.00000649,-0.00008035,0.00002259,0.00
 000744,-0.00125426,-0.00021654,0.00052732,0.00069962,0.00076915,-0.001
 10347,0.00165621,0.00158953,0.00297802,-0.00000026,0.00003533,-0.00003
 847,-0.00009391,0.00005935,0.00003048,0.00016233,-0.00057111,-0.000376
 01,-0.00007510,0.00002014,-0.00000150,0.00689184,0.00030786,-0.0015812
 2,0.06918864,-0.18000840,-0.03189238,0.00362820,-0.00765462,-0.0077336
 9,0.00484225,-0.02237551,0.00105955,-0.08564912,0.20882279,0.00002111,
 0.00011544,-0.00005186,-0.00000700,-0.00001386,0.00001620,0.00004206,0
 .00005399,-0.00000055,-0.00004785,-0.00006665,-0.00006561,-0.00000446,
 -0.00000077,0.00001294,0.00014042,0.00012666,0.00001909,0.00001858,0.0
 0000625,-0.00003431,-0.00000760,-0.00000223,0.00000645,-0.00001448,-0.
 00001237,0.00001340,0.00001132,-0.00004037,-0.00002305,-0.00000381,0.0
 0000202,0.00000717,-0.00001972,-0.00000015,0.00000737,0.00000274,-0.00
 000275,0.00000058,0.00000067,-0.00000137,0.00000067,-0.00002845,-0.000
 00559,0.00001891,0.00040398,-0.00022945,-0.00015426,-0.00009094,-0.000
 14969,0.00008281,-0.00289180,0.00151943,0.00201507,0.00002234,0.000057
 50,0.00001820,-0.00000648,-0.00000008,-0.00001211,0.00127299,-0.000264
 97,-0.00021139,0.00001115,-0.00001165,-0.00000929,-0.00353647,0.002682
 22,0.00206887,0.01586036,-0.03322675,-0.04221809,0.00776244,-0.0211644
 6,-0.00777510,-0.00305778,0.01280728,0.00413342,-0.01585258,0.03781932
 ,0.04212709,-0.00014087,-0.00009027,0.00026311,-0.00017630,0.00027164,
 -0.00017987,0.00010825,-0.00006254,-0.00000405,0.00023217,-0.00008424,
 0.00008825,-0.00010388,0.00017493,-0.00024245,-0.00000875,-0.00003183,
 -0.00009634,0.00000345,-0.00005590,-0.00012430,0.00001710,0.00005293,0
 .00007105,-0.00001189,-0.00000259,0.00008451,-0.00033066,0.00024298,0.
 00020198,0.00018612,0.00006060,-0.00013739,0.00006030,0.00008422,0.000
 07478,-0.00003076,0.00008656,-0.00005634,-0.00030848,0.00054137,0.0003
 0415,-0.00007302,0.00002651,0.00002117,0.00019745,0.00008597,0.0003938
 3,0.00142926,-0.00016939,-0.00052840,-0.00077321,-0.00025946,-0.000060
 09,-0.05108307,-0.03492257,-0.00723622,-0.00263846,0.00495094,0.000623
 17,0.00038984,0.00003739,-0.00019057,-0.19191419,0.05236309,0.00397043
 ,0.00034111,0.00008519,0.00009595,-0.00008623,0.00002941,0.00006817,0.
 00002388,-0.00001216,-0.00003102,-0.00001391,-0.00002655,0.00000963,-0
 .00001685,0.00001573,-0.00000194,0.38215975,0.00121699,0.00518672,-0.0
 0000963,0.00026071,-0.00141474,-0.00044421,-0.00005820,0.00013356,0.00
 004983,-0.00015666,-0.00001871,-0.00014502,-0.00031872,-0.00023521,0.0
 0037963,0.00006001,-0.00001122,0.00013142,0.00005122,0.00003223,0.0003
 6521,-0.00004461,-0.00002038,-0.00008236,-0.00000365,0.00003255,-0.000
 07558,0.00041640,-0.00079071,-0.00129629,-0.00042062,0.00004797,0.0004
 1518,-0.00026383,-0.00014340,0.00001828,0.00004663,-0.00011073,0.00011
 019,-0.00044276,0.00030061,-0.00002198,0.00008829,-0.00004585,0.000003
 64,0.00163945,-0.00038126,-0.00242947,-0.00749038,-0.00662302,0.001866
 81,-0.00046761,0.00071582,-0.00037935,-0.02770127,0.01150049,0.0011149
 8,-0.00283068,-0.00358141,-0.00040161,-0.00052233,-0.00002335,0.000261
 80,0.06333849,-0.07192356,-0.00453222,-0.00045205,-0.00014436,0.000140
 14,0.00009805,-0.00006995,-0.00007200,-0.00003050,0.00001032,0.0000302
 0,0.00000426,0.00002783,-0.00001380,0.00002258,-0.00001966,0.00000326,
 0.00300137,0.42202410,-0.00041313,-0.00008877,-0.00002489,0.00024812,-
 0.00030882,0.00001286,0.00001465,-0.00000945,-0.00002492,-0.00002436,0
 .00004626,0.00005232,0.00000464,0.00004014,-0.00005637,-0.00001565,-0.
 00000382,-0.00001925,0.00002559,0.00000616,0.00003813,-0.00000469,0.00
 000833,0.00000146,-0.00001241,-0.00001990,0.00000089,0.00000144,0.0000
 3511,0.00003613,0.00004475,0.00000458,-0.00003247,0.00001200,-0.000019
 59,0.00000914,-0.00000160,0.00001449,-0.00001344,-0.00009239,0.0001466
 5,-0.00001948,-0.00001181,0.00000222,0.00000493,-0.00171545,0.00057077
 ,-0.00128010,0.00137306,-0.00203877,0.00573665,0.00010129,-0.00032963,
 0.00028080,-0.00737867,0.00319834,-0.00569233,-0.00046240,-0.00111438,
 -0.00050049,-0.00023862,0.00006940,0.00008329,0.00660466,-0.00530406,-
 0.03691920,-0.00007507,0.00003358,0.00001032,0.00001149,0.00001659,-0.
 00002613,-0.00000375,-0.00000176,-0.00000093,0.00000851,0.00000354,-0.
 00000101,0.00000174,-0.00000609,-0.00000097,-0.00013266,0.00606614,0.3
 9482690,-0.00021123,-0.00076434,-0.00004539,0.00001464,0.00015787,0.00
 010778,0.00000823,-0.00001491,-0.00000793,0.00000180,0.00000837,0.0000
 1863,0.00002063,0.00003881,-0.00002283,-0.00001379,0.00000313,-0.00001
 406,-0.00000191,-0.00000113,-0.00004722,0.00000171,0.00000131,0.000010
 14,-0.00000294,-0.00000646,0.00000562,-0.00003581,0.00010267,0.0001752
 0,0.00003600,-0.00000964,-0.00004892,0.00004237,0.00001423,-0.00000464
 ,-0.00000702,0.00001391,-0.00001481,0.00002465,-0.00004920,-0.00002921
 ,-0.00001356,0.00000560,-0.00000042,-0.00049633,0.00009140,0.00013328,
 0.00117082,0.00033801,0.00053804,0.00008869,-0.00012902,0.00010854,-0.
 00278407,0.00276174,-0.00277781,0.00055990,0.00013832,0.00005341,0.000
 03016,0.00001123,-0.00002355,-0.02923561,0.02155513,-0.01995600,0.0000
 4399,0.00002230,-0.00002582,-0.00001114,0.00001089,0.00000053,0.000001
 71,-0.00000170,-0.00000273,0.00000025,-0.00000321,0.00000257,-0.000002
 99,0.00000131,0.00000028,-0.03787495,0.01750957,-0.02097709,0.05908485
 ,-0.00001805,-0.00006179,-0.00000487,-0.00005171,0.00005836,0.00001767
 ,-0.00002189,0.00000493,0.00000315,-0.00001639,-0.00000173,-0.00001616
 ,-0.00000153,0.00000030,0.00001662,0.00000594,0.00000627,0.00001481,-0
 .00001194,0.00000546,0.00000587,0.00000387,-0.00000548,-0.00000973,0.0
 0000574,0.00000520,-0.00001603,0.00001412,-0.00000546,0.00001739,-0.00
 000287,-0.00000836,0.00000656,-0.00000719,0.00000343,-0.00001094,0.000
 00470,-0.00001139,0.00000734,0.00006825,-0.00003945,0.00000400,0.00001
 406,-0.00000239,-0.00000547,-0.00019739,-0.00010074,0.00017035,0.00000
 285,-0.00022780,-0.00017705,0.00023228,0.00005205,-0.00002880,0.000042
 26,0.00396809,0.00015693,0.00098426,-0.00125812,0.00030740,-0.00009404
 ,-0.00001697,0.00005246,0.01052553,-0.00576709,0.00527567,-0.00009981,
 -0.00002948,-0.00002238,0.00002375,-0.00000811,-0.00002016,-0.00000794
 ,0.00000534,0.00000677,0.00000336,0.00000930,-0.00000296,0.00000297,-0
 .00000229,-0.00000012,0.02401429,-0.11361391,0.08703534,-0.03455075,0.
 13110619,0.00002075,-0.00030099,0.00000234,0.00000746,0.00008761,-0.00
 001310,0.00003229,-0.00001673,-0.00000345,0.00004739,-0.00003190,0.000
 01990,-0.00002263,0.00005810,-0.00005152,-0.00000704,-0.00000309,-0.00
 002352,0.00000308,-0.00001785,-0.00007258,0.00001029,0.00000950,0.0000
 2931,0.00000406,-0.00000898,0.00003976,-0.00007326,0.00008333,0.000099
 96,0.00004167,0.00001024,-0.00004089,0.00003106,0.00001582,0.00001079,
 -0.00000919,0.00002289,-0.00001603,0.00003916,-0.00000443,0.00006432,-
 0.00002313,0.00000762,0.00000596,0.00010188,0.00003165,-0.00014978,0.0
 0027195,0.00018509,-0.00000263,-0.00026664,-0.00001459,0.00014756,-0.0
 0303619,-0.00147462,0.00017815,0.00047481,0.00040051,-0.00026016,0.000
 15182,-0.00000222,-0.00011582,-0.00612885,0.00494260,0.00002297,0.0001
 4578,0.00002412,-0.00001488,-0.00003282,0.00000720,0.00002230,0.000009
 46,-0.00000406,-0.00000702,-0.00000504,-0.00001028,0.00000635,-0.00000
 506,0.00000650,0.00000216,-0.02749792,0.08795541,-0.13137782,0.0359575
 0,-0.10691528,0.15081918,-0.00003002,-0.00047466,-0.00002420,-0.000037
 45,0.00016811,0.00006071,0.00000281,-0.00000536,-0.00000151,0.00000843
 ,-0.00000662,-0.00000180,0.00001403,0.00002249,0.00000119,-0.00000608,
 0.00000297,-0.00000594,-0.00000555,-0.00000169,-0.00002823,-0.00000090
 ,-0.00000124,0.00000208,-0.00000047,0.00000254,-0.00000221,-0.00002537
 ,0.00006558,0.00010337,0.00001644,-0.00000587,-0.00002944,0.00002608,0
 .00001237,0.00000025,-0.00000471,0.00000667,-0.00000920,0.00003194,-0.
 00008743,-0.00003979,-0.00000588,0.00000277,-0.00000200,0.00013627,-0.
 00011308,0.00039896,0.00028129,0.00061474,-0.00122656,0.00002325,0.000
 02094,-0.00003373,-0.00280908,0.00112632,0.00347252,0.00048644,0.00035
 573,-0.00000373,0.00008028,-0.00001353,-0.00002344,-0.03124010,0.01337
 016,0.02462483,0.00005250,0.00000529,-0.00000797,-0.00001345,0.0000019
 4,0.00000868,0.00000245,-0.00000087,-0.00000385,-0.00000223,-0.0000030
 1,0.00000081,-0.00000235,0.00000278,-0.00000053,-0.04246033,0.01216950
 ,0.03526727,0.00484575,-0.00077807,-0.00116561,0.06551003,-0.00006171,
 -0.00026396,0.00004130,-0.00002073,0.00007307,0.00000392,-0.00000999,-
 0.00000322,-0.00000284,0.00000274,-0.00000684,0.00000371,0.00002984,0.
 00002147,-0.00001708,0.00000244,0.00000556,0.00000340,-0.00000816,0.00
 000008,-0.00000337,0.00000388,-0.00000032,-0.00000162,0.00000167,0.000
 00178,-0.00000497,-0.00001514,0.00004899,0.00007389,0.00003272,-0.0000
 0421,-0.00002081,0.00000899,0.00000610,-0.00000014,0.00000082,-0.00000
 052,-0.00000207,0.00004063,-0.00000651,-0.00000484,0.00000469,0.000000
 94,-0.00000210,-0.00019945,-0.00006243,0.00016093,0.00016082,-0.000097
 74,-0.00025231,0.00015386,0.00002914,0.00001529,-0.00108708,0.00299084
 ,0.00077268,0.00103274,-0.00092546,-0.00046107,-0.00003844,-0.00001293
 ,0.00001696,0.00829458,-0.00172184,-0.00563927,-0.00004533,-0.00001792
 ,-0.00002749,0.00001142,-0.00000420,-0.00001178,-0.00000442,0.00000378
 ,0.00000424,0.00000169,0.00000512,-0.00000047,0.00000100,-0.00000018,0
 .00000045,0.01567992,-0.05617763,-0.05642484,-0.00198398,0.00585154,0.
 01250064,-0.02350501,0.06074786,0.00007198,0.00053018,-0.00014712,-0.0
 0004739,-0.00006529,0.00004521,-0.00003378,0.00002798,0.00000965,-0.00
 006092,0.00001671,-0.00005780,-0.00005545,-0.00003665,0.00014248,0.000
 00843,0.00001048,0.00004562,-0.00000829,0.00002054,0.00002417,-0.00000
 262,-0.00001599,-0.00001831,0.00000855,-0.00000014,-0.00001917,0.00009
 243,-0.00014348,-0.00014437,-0.00007567,-0.00001296,0.00007675,-0.0000
 4758,-0.00001621,-0.00002305,0.00001024,-0.00003099,0.00002845,0.00001
 197,-0.00003290,-0.00001633,0.00002552,-0.00001002,-0.00000590,0.00001
 272,-0.00005828,-0.00001308,-0.00042184,-0.00040607,0.00004405,0.00022
 723,0.00008404,-0.00000788,0.00265960,0.00261093,0.00115427,-0.0000779
 6,-0.00058008,-0.00052245,-0.00013371,-0.00001044,0.00003729,0.0076916
 5,-0.00475696,-0.00188786,-0.00017287,-0.00004324,-0.00005320,0.000041
 22,-0.00001454,-0.00004247,-0.00001517,0.00000514,0.00001712,0.0000043
 6,0.00001062,-0.00000084,0.00000601,-0.00000673,0.00000349,0.04373680,
 -0.05775080,-0.18450049,0.00268791,-0.00117062,-0.02285397,-0.05591255
 ,0.07007181,0.21497920,0.00022162,0.00093490,-0.00002049,0.00004706,-0
 .00024348,-0.00006401,-0.00000354,0.00002815,0.00000845,-0.00002482,-0
 .00000890,-0.00003078,-0.00009257,-0.00002021,0.00009271,0.00000824,-0
 .00000031,0.00002465,0.00001335,-0.00000086,0.00006867,-0.00000963,0.0
 0000277,-0.00001228,-0.00000362,0.00001038,-0.00001645,0.00007095,-0.0
 0013543,-0.00023183,-0.00006659,0.00001929,0.00007453,-0.00004306,-0.0
 0003093,0.00001377,0.00000680,-0.00001397,0.00001684,-0.00031997,0.000
 18594,0.00004959,0.00001278,-0.00000724,0.00000178,0.00023018,-0.00009
 804,-0.00061347,-0.00139911,-0.00176521,0.00059269,-0.00011920,0.00017
 819,-0.00003539,-0.00667389,0.00403984,0.00021306,0.00126752,0.0000177
 7,0.00009866,-0.00010428,-0.00001295,0.00005124,-0.03353270,-0.0295639
 2,-0.00693066,-0.00007364,-0.00003109,0.00002587,0.00001421,-0.0000153
 7,-0.00001610,-0.00000671,0.00000258,0.00000493,-0.00000024,0.00000563
 ,-0.00000199,0.00000332,-0.00000228,0.00000108,-0.05710026,-0.05871847
 ,-0.01215909,0.00471510,-0.00008851,0.00092266,0.00512588,0.00151474,-
 0.00023123,0.08783634,-0.00015747,-0.00137484,0.00013389,-0.00000072,0
 .00029790,-0.00001623,0.00004028,-0.00004995,-0.00001655,0.00011153,-0
 .00003707,0.00005979,0.00003542,0.00013567,-0.00015738,-0.00001046,-0.
 00000450,-0.00005094,-0.00001011,-0.00004565,-0.00009999,0.00002280,0.
 00002728,0.00003668,-0.00000527,0.00000057,0.00003443,-0.00020480,0.00
 028892,0.00038343,0.00018390,0.00002116,-0.00013710,0.00007746,0.00004
 593,0.00001807,-0.00001678,0.00005095,-0.00003865,0.00018287,-0.000004
 21,0.00003327,-0.00003512,0.00001836,0.00000502,-0.00030345,0.00005705
 ,0.00045440,0.00105391,0.00112012,-0.00071700,-0.00006790,-0.00014432,
 0.00009603,-0.00076144,-0.00364386,-0.00041483,-0.00002246,0.00094214,
 0.00011670,0.00017598,-0.00000106,-0.00008603,-0.00991733,0.00385946,-
 0.00024356,0.00016830,0.00003994,-0.00001111,-0.00003909,0.00001695,0.
 00002924,0.00001095,-0.00000266,-0.00001196,-0.00000413,-0.00000921,0.
 00000460,-0.00000851,0.00000884,-0.00000086,-0.06608853,-0.18466216,-0
 .03162766,-0.00527209,-0.01991647,0.00245632,-0.00295463,-0.01048044,-
 0.00822616,0.08381714,0.21344489,0.00004988,-0.00003684,-0.00007373,-0
 .00003344,0.00005414,0.00000954,0.00001055,-0.00000316,0.00000380,0.00
 001341,-0.00001723,-0.00001203,-0.00006468,0.00002979,0.00001431,-0.00
 000145,0.00000022,-0.00000053,-0.00000268,-0.00001147,-0.00005422,0.00
 001060,0.00000257,0.00001553,0.00000799,-0.00000286,0.00002004,-0.0000
 2180,0.00000396,0.00002203,-0.00000649,0.00000319,0.00000435,0.0000046
 5,0.00000874,-0.00000774,-0.00000256,0.00000541,0.00000044,0.00012061,
 -0.00005307,0.00005355,-0.00000698,0.00000229,0.00000086,0.00005030,0.
 00000829,-0.00009395,0.00005332,0.00003334,0.00009988,-0.00009549,0.00
 000573,0.00008679,-0.00033045,-0.00062559,0.00031447,0.00004471,0.0002
 1276,-0.00003823,0.00004974,-0.00000544,-0.00005899,-0.00327025,-0.000
 86261,0.00254544,0.00003412,0.00000276,-0.00002245,-0.00000726,0.00000
 041,0.00000021,0.00000096,-0.00000094,0.00000061,-0.00000167,-0.000002
 72,0.00000333,-0.00000149,0.00000200,0.00000229,-0.01348786,-0.0312572
 1,-0.04060416,0.00419905,0.01530206,0.00353244,-0.00541811,-0.02079253
 ,-0.00629361,0.01810268,0.03799422,0.04052943\\-0.00000990,-0.00000372
 ,-0.00003115,-0.00000063,-0.00000049,0.00000318,0.00000040,-0.00000083
 ,0.00000282,0.00000036,0.00000190,0.00000194,-0.00000159,0.00000068,0.
 00000267,0.00000112,0.00000331,0.00000024,-0.00000035,-0.00000211,0.00
 000259,-0.00000096,-0.00000436,0.00000374,-0.00000035,-0.00000383,0.00
 000002,0.00000050,-0.00000282,0.00000435,0.00000082,0.00000106,0.00000
 613,0.00000045,0.00000068,0.00000415,0.00000089,0.00000226,0.00000574,
 -0.00000008,-0.00000259,0.00000306,-0.00000028,-0.00000072,0.00000229,
 -0.00002867,-0.00002796,-0.00003734,0.00005217,0.00005897,0.00009026,-
 0.00000085,-0.00000247,-0.00000096,-0.00000479,-0.00002301,-0.00003572
 ,-0.00000043,0.00000207,-0.00000362,-0.00000183,-0.00000280,-0.0000044
 4,-0.00000178,0.00000297,0.00001105,0.,0.00000238,-0.00000474,-0.00000
 025,0.00000139,-0.00000467,0.00000081,0.00000363,-0.00000574,-0.000000
 55,0.00000102,-0.00000672,0.00000004,0.00000171,-0.00000393,-0.0000020
 9,-0.00000447,-0.00000720,-0.00000184,-0.00000164,-0.00000022,0.,0.000
 00099,0.00000034,-0.00000033,-0.00000123,0.00000187\\\@


 SEEN ON A WALL AT THE UNIVERSITY OF ILLINOIS AT CHICAGO CIRCLE:

 TO DO IS TO BE  -- SOCRATES
 TO BE IS TO DO  -- SARTRE
 OO BE DO BE DO  -- SINATRA
 Job cpu time:       0 days  0 hours  0 minutes 41.8 seconds.
 File lengths (MBytes):  RWF=    137 Int=      0 D2E=      0 Chk=      9 Scr=      1
 Normal termination of Gaussian 09 at Mon Sep  7 02:56:21 2020.
