 Entering Gaussian System, Link 0=g09
 Input=pm6_product_step1_cycloaddition_m062x_toluene_3_radical_2.com
 Output=pm6_product_step1_cycloaddition_m062x_toluene_3_radical_2.log
 Initial command:
 /apps/applications/gaussian/G09.D01/2/default/g09/l1.exe "/local/2608477.1.40core-192G.q/Gau-301575.inp" -scrdir="/local/2608477.1.40core-192G.q/"
 Entering Link 1 = /apps/applications/gaussian/G09.D01/2/default/g09/l1.exe PID=    301576.
  
 Copyright (c) 1988,1990,1992,1993,1995,1998,2003,2009,2013,
            Gaussian, Inc.  All Rights Reserved.
  
 This is part of the Gaussian(R) 09 program.  It is based on
 the Gaussian(R) 03 system (copyright 2003, Gaussian, Inc.),
 the Gaussian(R) 98 system (copyright 1998, Gaussian, Inc.),
 the Gaussian(R) 94 system (copyright 1995, Gaussian, Inc.),
 the Gaussian 92(TM) system (copyright 1992, Gaussian, Inc.),
 the Gaussian 90(TM) system (copyright 1990, Gaussian, Inc.),
 the Gaussian 88(TM) system (copyright 1988, Gaussian, Inc.),
 the Gaussian 86(TM) system (copyright 1986, Carnegie Mellon
 University), and the Gaussian 82(TM) system (copyright 1983,
 Carnegie Mellon University). Gaussian is a federally registered
 trademark of Gaussian, Inc.
  
 This software contains proprietary and confidential information,
 including trade secrets, belonging to Gaussian, Inc.
  
 This software is provided under written license and may be
 used, copied, transmitted, or stored only in accord with that
 written license.
  
 The following legend is applicable only to US Government
 contracts under FAR:
  
                    RESTRICTED RIGHTS LEGEND
  
 Use, reproduction and disclosure by the US Government is
 subject to restrictions as set forth in subparagraphs (a)
 and (c) of the Commercial Computer Software - Restricted
 Rights clause in FAR 52.227-19.
  
 Gaussian, Inc.
 340 Quinnipiac St., Bldg. 40, Wallingford CT 06492
  
  
 ---------------------------------------------------------------
 Warning -- This program may not be used in any manner that
 competes with the business of Gaussian, Inc. or will provide
 assistance to any competitor of Gaussian, Inc.  The licensee
 of this program is prohibited from giving any competitor of
 Gaussian, Inc. access to this program.  By using this program,
 the user acknowledges that Gaussian, Inc. is engaged in the
 business of creating and licensing software in the field of
 computational chemistry and represents and warrants to the
 licensee that it is not a competitor of Gaussian, Inc. and that
 it will not use this program in any manner prohibited above.
 ---------------------------------------------------------------
  

 Cite this work as:
 Gaussian 09, Revision D.01,
 M. J. Frisch, G. W. Trucks, H. B. Schlegel, G. E. Scuseria, 
 M. A. Robb, J. R. Cheeseman, G. Scalmani, V. Barone, B. Mennucci, 
 G. A. Petersson, H. Nakatsuji, M. Caricato, X. Li, H. P. Hratchian, 
 A. F. Izmaylov, J. Bloino, G. Zheng, J. L. Sonnenberg, M. Hada, 
 M. Ehara, K. Toyota, R. Fukuda, J. Hasegawa, M. Ishida, T. Nakajima, 
 Y. Honda, O. Kitao, H. Nakai, T. Vreven, J. A. Montgomery, Jr., 
 J. E. Peralta, F. Ogliaro, M. Bearpark, J. J. Heyd, E. Brothers, 
 K. N. Kudin, V. N. Staroverov, T. Keith, R. Kobayashi, J. Normand, 
 K. Raghavachari, A. Rendell, J. C. Burant, S. S. Iyengar, J. Tomasi, 
 M. Cossi, N. Rega, J. M. Millam, M. Klene, J. E. Knox, J. B. Cross, 
 V. Bakken, C. Adamo, J. Jaramillo, R. Gomperts, R. E. Stratmann, 
 O. Yazyev, A. J. Austin, R. Cammi, C. Pomelli, J. W. Ochterski, 
 R. L. Martin, K. Morokuma, V. G. Zakrzewski, G. A. Voth, 
 P. Salvador, J. J. Dannenberg, S. Dapprich, A. D. Daniels, 
 O. Farkas, J. B. Foresman, J. V. Ortiz, J. Cioslowski, 
 and D. J. Fox, Gaussian, Inc., Wallingford CT, 2013.
 
 ******************************************
 Gaussian 09:  ES64L-G09RevD.01 24-Apr-2013
                12-Jul-2021 
 ******************************************
 %nprocshared=4
 Will use up to    4 processors via shared memory.
 %chk=product_cycloaddition_m062x_toluene_2.chk
 ----------------------------------------------------------------------
 # opt freq pm6 scrf=(cpcm,solvent=toluene) geom=connectivity empirical
 dispersion=gd3
 ----------------------------------------------------------------------
 1/14=-1,18=20,19=15,26=1,38=1,57=2/1,3;
 2/9=110,12=2,17=6,18=5,40=1/2;
 3/5=2,16=1,25=1,41=3900000,70=2101,71=1,72=13,124=31/1,2,3;
 4/35=1/1;
 5/5=2,35=1,38=5,53=13/2;
 6/7=2,8=2,9=2,10=2,28=1/1;
 7//1,2,3,16;
 1/14=-1,18=20,19=15,26=1/3(2);
 2/9=110/2;
 99//99;
 2/9=110/2;
 3/5=2,16=1,25=1,41=3900000,70=2105,71=1,72=13,124=31,135=20/1,2,3;
 4/5=5,16=3,35=1/1;
 5/5=2,35=1,38=5,53=13/2;
 7//1,2,3,16;
 1/14=-1,18=20,19=15,26=1/3(-5);
 2/9=110/2;
 6/7=2,8=2,9=2,10=2,19=2,28=1/1;
 99/9=1/99;
 -------------------
 Title Card Required
 -------------------
 Symbolic Z-matrix:
 Charge =  0 Multiplicity = 3
 C                     0.35107   0.71581  -0.57151 
 C                     0.69112   1.8769    0.41036 
 C                    -1.60656   1.73729   0.46248 
 C                    -1.10666   1.08109  -0.79405 
 H                     0.94211   0.78555  -1.4903 
 H                    -1.75078   0.54617  -1.48626 
 C                    -0.44864   1.74402   1.45519 
 H                    -0.47742   2.61099   2.13011 
 H                    -0.3963    0.82169   2.05287 
 C                     0.21248   3.048    -0.40648 
 H                     0.54887   4.0787   -0.30835 
 C                    -1.16043   2.60102  -0.71621 
 H                    -1.87668   3.15979  -1.31518 
 H                     1.7197    1.89121   0.78286 
 H                    -2.65077   1.66232   0.76289 
 N                    -0.19923  -1.28586   0.80199 
 N                     0.62437  -0.61249   0.02562 
 C                    -1.55098  -1.36351   0.48933 
 C                     1.97348  -1.04316   0.12496 
 O                     2.31946  -2.03825   0.688 
 O                    -2.42832  -1.23745   1.30202 
 O                     2.78081  -0.19828  -0.51018 
 O                    -1.75074  -1.74194  -0.78121 
 C                    -3.10907  -1.94557  -1.14702 
 H                    -3.09884  -2.29174  -2.18487 
 H                    -3.57417  -2.69598  -0.49487 
 H                    -3.67363  -1.00571  -1.06197 
 C                     4.15931  -0.55724  -0.51079 
 H                     4.67449   0.2216   -1.07959 
 H                     4.54028  -0.59928   0.51751 
 H                     4.29674  -1.53741  -0.98482 
 

 GradGradGradGradGradGradGradGradGradGradGradGradGradGradGradGradGradGrad
 Berny optimization.
 Initialization pass.
                           ----------------------------
                           !    Initial Parameters    !
                           ! (Angstroms and Degrees)  !
 --------------------------                            --------------------------
 ! Name  Definition              Value          Derivative Info.                !
 --------------------------------------------------------------------------------
 ! R1    R(1,2)                  1.5582         estimate D2E/DX2                !
 ! R2    R(1,4)                  1.5192         estimate D2E/DX2                !
 ! R3    R(1,5)                  1.0947         estimate D2E/DX2                !
 ! R4    R(1,17)                 1.4818         estimate D2E/DX2                !
 ! R5    R(2,7)                  1.5519         estimate D2E/DX2                !
 ! R6    R(2,10)                 1.5059         estimate D2E/DX2                !
 ! R7    R(2,14)                 1.094          estimate D2E/DX2                !
 ! R8    R(3,4)                  1.5031         estimate D2E/DX2                !
 ! R9    R(3,7)                  1.5252         estimate D2E/DX2                !
 ! R10   R(3,12)                 1.5279         estimate D2E/DX2                !
 ! R11   R(3,15)                 1.0892         estimate D2E/DX2                !
 ! R12   R(4,6)                  1.0864         estimate D2E/DX2                !
 ! R13   R(4,12)                 1.5229         estimate D2E/DX2                !
 ! R14   R(7,8)                  1.0991         estimate D2E/DX2                !
 ! R15   R(7,9)                  1.1003         estimate D2E/DX2                !
 ! R16   R(10,11)                1.0886         estimate D2E/DX2                !
 ! R17   R(10,12)                1.4767         estimate D2E/DX2                !
 ! R18   R(12,13)                1.0881         estimate D2E/DX2                !
 ! R19   R(16,17)                1.317          estimate D2E/DX2                !
 ! R20   R(16,18)                1.3896         estimate D2E/DX2                !
 ! R21   R(17,19)                1.4197         estimate D2E/DX2                !
 ! R22   R(18,21)                1.2025         estimate D2E/DX2                !
 ! R23   R(18,23)                1.3407         estimate D2E/DX2                !
 ! R24   R(19,20)                1.1945         estimate D2E/DX2                !
 ! R25   R(19,22)                1.33           estimate D2E/DX2                !
 ! R26   R(22,28)                1.4245         estimate D2E/DX2                !
 ! R27   R(23,24)                1.4214         estimate D2E/DX2                !
 ! R28   R(24,25)                1.0941         estimate D2E/DX2                !
 ! R29   R(24,26)                1.0976         estimate D2E/DX2                !
 ! R30   R(24,27)                1.0997         estimate D2E/DX2                !
 ! R31   R(28,29)                1.0934         estimate D2E/DX2                !
 ! R32   R(28,30)                1.0974         estimate D2E/DX2                !
 ! R33   R(28,31)                1.0974         estimate D2E/DX2                !
 ! A1    A(2,1,4)               97.0392         estimate D2E/DX2                !
 ! A2    A(2,1,5)              111.3208         estimate D2E/DX2                !
 ! A3    A(2,1,17)             111.9503         estimate D2E/DX2                !
 ! A4    A(4,1,5)              112.3212         estimate D2E/DX2                !
 ! A5    A(4,1,17)             116.8435         estimate D2E/DX2                !
 ! A6    A(5,1,17)             107.2027         estimate D2E/DX2                !
 ! A7    A(1,2,7)              101.5469         estimate D2E/DX2                !
 ! A8    A(1,2,10)              99.6904         estimate D2E/DX2                !
 ! A9    A(1,2,14)             115.4345         estimate D2E/DX2                !
 ! A10   A(7,2,10)             101.4402         estimate D2E/DX2                !
 ! A11   A(7,2,14)             117.5405         estimate D2E/DX2                !
 ! A12   A(10,2,14)            118.2505         estimate D2E/DX2                !
 ! A13   A(4,3,7)              107.0697         estimate D2E/DX2                !
 ! A14   A(4,3,15)             121.2896         estimate D2E/DX2                !
 ! A15   A(7,3,12)             106.1379         estimate D2E/DX2                !
 ! A16   A(7,3,15)             123.2741         estimate D2E/DX2                !
 ! A17   A(12,3,15)            122.1166         estimate D2E/DX2                !
 ! A18   A(1,4,3)              107.5553         estimate D2E/DX2                !
 ! A19   A(1,4,6)              122.9477         estimate D2E/DX2                !
 ! A20   A(1,4,12)             105.4484         estimate D2E/DX2                !
 ! A21   A(3,4,6)              123.3962         estimate D2E/DX2                !
 ! A22   A(6,4,12)             120.2042         estimate D2E/DX2                !
 ! A23   A(2,7,3)               96.8773         estimate D2E/DX2                !
 ! A24   A(2,7,8)              111.4149         estimate D2E/DX2                !
 ! A25   A(2,7,9)              113.7377         estimate D2E/DX2                !
 ! A26   A(3,7,8)              112.5372         estimate D2E/DX2                !
 ! A27   A(3,7,9)              112.7036         estimate D2E/DX2                !
 ! A28   A(8,7,9)              109.2026         estimate D2E/DX2                !
 ! A29   A(2,10,11)            126.0982         estimate D2E/DX2                !
 ! A30   A(2,10,12)            100.0134         estimate D2E/DX2                !
 ! A31   A(11,10,12)           126.3545         estimate D2E/DX2                !
 ! A32   A(3,12,10)            106.3065         estimate D2E/DX2                !
 ! A33   A(3,12,13)            121.5175         estimate D2E/DX2                !
 ! A34   A(4,12,10)            106.2605         estimate D2E/DX2                !
 ! A35   A(4,12,13)            120.5062         estimate D2E/DX2                !
 ! A36   A(10,12,13)           124.8902         estimate D2E/DX2                !
 ! A37   A(17,16,18)           120.2818         estimate D2E/DX2                !
 ! A38   A(1,17,16)            125.4892         estimate D2E/DX2                !
 ! A39   A(1,17,19)            118.3864         estimate D2E/DX2                !
 ! A40   A(16,17,19)           113.4485         estimate D2E/DX2                !
 ! A41   A(16,18,21)           123.49           estimate D2E/DX2                !
 ! A42   A(16,18,23)           111.9589         estimate D2E/DX2                !
 ! A43   A(21,18,23)           124.1488         estimate D2E/DX2                !
 ! A44   A(17,19,20)           124.1201         estimate D2E/DX2                !
 ! A45   A(17,19,22)           110.531          estimate D2E/DX2                !
 ! A46   A(20,19,22)           125.3413         estimate D2E/DX2                !
 ! A47   A(19,22,28)           115.3114         estimate D2E/DX2                !
 ! A48   A(18,23,24)           115.2599         estimate D2E/DX2                !
 ! A49   A(23,24,25)           106.2913         estimate D2E/DX2                !
 ! A50   A(23,24,26)           110.4861         estimate D2E/DX2                !
 ! A51   A(23,24,27)           110.3807         estimate D2E/DX2                !
 ! A52   A(25,24,26)           110.5645         estimate D2E/DX2                !
 ! A53   A(25,24,27)           110.3997         estimate D2E/DX2                !
 ! A54   A(26,24,27)           108.7131         estimate D2E/DX2                !
 ! A55   A(22,28,29)           106.0622         estimate D2E/DX2                !
 ! A56   A(22,28,30)           110.1942         estimate D2E/DX2                !
 ! A57   A(22,28,31)           110.2698         estimate D2E/DX2                !
 ! A58   A(29,28,30)           110.5588         estimate D2E/DX2                !
 ! A59   A(29,28,31)           110.6401         estimate D2E/DX2                !
 ! A60   A(30,28,31)           109.091          estimate D2E/DX2                !
 ! D1    D(4,1,2,7)             51.1438         estimate D2E/DX2                !
 ! D2    D(4,1,2,10)           -52.758          estimate D2E/DX2                !
 ! D3    D(4,1,2,14)           179.4409         estimate D2E/DX2                !
 ! D4    D(5,1,2,7)            168.4659         estimate D2E/DX2                !
 ! D5    D(5,1,2,10)            64.5641         estimate D2E/DX2                !
 ! D6    D(5,1,2,14)           -63.237          estimate D2E/DX2                !
 ! D7    D(17,1,2,7)           -71.5609         estimate D2E/DX2                !
 ! D8    D(17,1,2,10)         -175.4627         estimate D2E/DX2                !
 ! D9    D(17,1,2,14)           56.7362         estimate D2E/DX2                !
 ! D10   D(2,1,4,3)            -30.3609         estimate D2E/DX2                !
 ! D11   D(2,1,4,6)            176.3869         estimate D2E/DX2                !
 ! D12   D(2,1,4,12)            33.1532         estimate D2E/DX2                !
 ! D13   D(5,1,4,3)           -146.8944         estimate D2E/DX2                !
 ! D14   D(5,1,4,6)             59.8534         estimate D2E/DX2                !
 ! D15   D(5,1,4,12)           -83.3804         estimate D2E/DX2                !
 ! D16   D(17,1,4,3)            88.6267         estimate D2E/DX2                !
 ! D17   D(17,1,4,6)           -64.6255         estimate D2E/DX2                !
 ! D18   D(17,1,4,12)          152.1407         estimate D2E/DX2                !
 ! D19   D(2,1,17,16)           84.6046         estimate D2E/DX2                !
 ! D20   D(2,1,17,19)          -75.584          estimate D2E/DX2                !
 ! D21   D(4,1,17,16)          -26.0079         estimate D2E/DX2                !
 ! D22   D(4,1,17,19)          173.8035         estimate D2E/DX2                !
 ! D23   D(5,1,17,16)         -153.0419         estimate D2E/DX2                !
 ! D24   D(5,1,17,19)           46.7694         estimate D2E/DX2                !
 ! D25   D(1,2,7,3)            -51.6839         estimate D2E/DX2                !
 ! D26   D(1,2,7,8)           -169.1997         estimate D2E/DX2                !
 ! D27   D(1,2,7,9)             66.8534         estimate D2E/DX2                !
 ! D28   D(10,2,7,3)            50.8272         estimate D2E/DX2                !
 ! D29   D(10,2,7,8)           -66.6886         estimate D2E/DX2                !
 ! D30   D(10,2,7,9)           169.3644         estimate D2E/DX2                !
 ! D31   D(14,2,7,3)          -178.6188         estimate D2E/DX2                !
 ! D32   D(14,2,7,8)            63.8653         estimate D2E/DX2                !
 ! D33   D(14,2,7,9)           -60.0816         estimate D2E/DX2                !
 ! D34   D(1,2,10,11)         -156.5287         estimate D2E/DX2                !
 ! D35   D(1,2,10,12)           52.5768         estimate D2E/DX2                !
 ! D36   D(7,2,10,11)           99.4821         estimate D2E/DX2                !
 ! D37   D(7,2,10,12)          -51.4124         estimate D2E/DX2                !
 ! D38   D(14,2,10,11)         -30.6293         estimate D2E/DX2                !
 ! D39   D(14,2,10,12)         178.4763         estimate D2E/DX2                !
 ! D40   D(7,3,4,1)             -0.9871         estimate D2E/DX2                !
 ! D41   D(7,3,4,6)            152.1169         estimate D2E/DX2                !
 ! D42   D(15,3,4,1)          -150.1056         estimate D2E/DX2                !
 ! D43   D(15,3,4,6)             2.9984         estimate D2E/DX2                !
 ! D44   D(4,3,7,2)             32.003          estimate D2E/DX2                !
 ! D45   D(4,3,7,8)            148.6329         estimate D2E/DX2                !
 ! D46   D(4,3,7,9)            -87.3367         estimate D2E/DX2                !
 ! D47   D(12,3,7,2)           -31.2249         estimate D2E/DX2                !
 ! D48   D(12,3,7,8)            85.4049         estimate D2E/DX2                !
 ! D49   D(12,3,7,9)          -150.5646         estimate D2E/DX2                !
 ! D50   D(15,3,7,2)          -179.6396         estimate D2E/DX2                !
 ! D51   D(15,3,7,8)           -63.0098         estimate D2E/DX2                !
 ! D52   D(15,3,7,9)            61.0206         estimate D2E/DX2                !
 ! D53   D(7,3,12,10)            1.286          estimate D2E/DX2                !
 ! D54   D(7,3,12,13)         -150.1768         estimate D2E/DX2                !
 ! D55   D(15,3,12,10)         150.1535         estimate D2E/DX2                !
 ! D56   D(15,3,12,13)          -1.3093         estimate D2E/DX2                !
 ! D57   D(1,4,12,10)           -2.1878         estimate D2E/DX2                !
 ! D58   D(1,4,12,13)          147.5152         estimate D2E/DX2                !
 ! D59   D(6,4,12,10)         -146.6536         estimate D2E/DX2                !
 ! D60   D(6,4,12,13)            3.0494         estimate D2E/DX2                !
 ! D61   D(2,10,12,3)           30.5329         estimate D2E/DX2                !
 ! D62   D(2,10,12,4)          -31.2346         estimate D2E/DX2                !
 ! D63   D(2,10,12,13)        -179.236          estimate D2E/DX2                !
 ! D64   D(11,10,12,3)        -120.2569         estimate D2E/DX2                !
 ! D65   D(11,10,12,4)         177.9757         estimate D2E/DX2                !
 ! D66   D(11,10,12,13)         29.9743         estimate D2E/DX2                !
 ! D67   D(18,16,17,1)          43.1782         estimate D2E/DX2                !
 ! D68   D(18,16,17,19)       -155.7882         estimate D2E/DX2                !
 ! D69   D(17,16,18,21)       -136.5458         estimate D2E/DX2                !
 ! D70   D(17,16,18,23)         50.4733         estimate D2E/DX2                !
 ! D71   D(1,17,19,20)         173.3666         estimate D2E/DX2                !
 ! D72   D(1,17,19,22)          -7.5951         estimate D2E/DX2                !
 ! D73   D(16,17,19,20)         10.8724         estimate D2E/DX2                !
 ! D74   D(16,17,19,22)       -170.0893         estimate D2E/DX2                !
 ! D75   D(16,18,23,24)        175.2927         estimate D2E/DX2                !
 ! D76   D(21,18,23,24)          2.3664         estimate D2E/DX2                !
 ! D77   D(17,19,22,28)       -178.0893         estimate D2E/DX2                !
 ! D78   D(20,19,22,28)          0.9348         estimate D2E/DX2                !
 ! D79   D(19,22,28,29)        179.1066         estimate D2E/DX2                !
 ! D80   D(19,22,28,30)        -61.2058         estimate D2E/DX2                !
 ! D81   D(19,22,28,31)         59.2808         estimate D2E/DX2                !
 ! D82   D(18,23,24,25)       -177.4009         estimate D2E/DX2                !
 ! D83   D(18,23,24,26)        -57.4107         estimate D2E/DX2                !
 ! D84   D(18,23,24,27)         62.865          estimate D2E/DX2                !
 --------------------------------------------------------------------------------
 Trust Radius=3.00D-01 FncErr=1.00D-07 GrdErr=1.00D-07
 Number of steps in this run=    186 maximum allowed number of steps=    186.
 GradGradGradGradGradGradGradGradGradGradGradGradGradGradGradGradGradGrad

                          Input orientation:                          
 ---------------------------------------------------------------------
 Center     Atomic      Atomic             Coordinates (Angstroms)
 Number     Number       Type             X           Y           Z
 ---------------------------------------------------------------------
      1          6           0        0.351069    0.715809   -0.571509
      2          6           0        0.691118    1.876900    0.410363
      3          6           0       -1.606556    1.737294    0.462483
      4          6           0       -1.106662    1.081090   -0.794054
      5          1           0        0.942105    0.785550   -1.490298
      6          1           0       -1.750778    0.546171   -1.486256
      7          6           0       -0.448641    1.744021    1.455191
      8          1           0       -0.477416    2.610987    2.130107
      9          1           0       -0.396301    0.821691    2.052867
     10          6           0        0.212479    3.048003   -0.406476
     11          1           0        0.548873    4.078699   -0.308350
     12          6           0       -1.160430    2.601019   -0.716210
     13          1           0       -1.876682    3.159791   -1.315178
     14          1           0        1.719701    1.891211    0.782860
     15          1           0       -2.650773    1.662317    0.762888
     16          7           0       -0.199232   -1.285861    0.801992
     17          7           0        0.624370   -0.612490    0.025615
     18          6           0       -1.550978   -1.363508    0.489333
     19          6           0        1.973483   -1.043157    0.124961
     20          8           0        2.319458   -2.038247    0.688001
     21          8           0       -2.428322   -1.237454    1.302017
     22          8           0        2.780813   -0.198281   -0.510179
     23          8           0       -1.750736   -1.741939   -0.781208
     24          6           0       -3.109073   -1.945574   -1.147017
     25          1           0       -3.098845   -2.291736   -2.184867
     26          1           0       -3.574171   -2.695975   -0.494874
     27          1           0       -3.673628   -1.005705   -1.061972
     28          6           0        4.159314   -0.557244   -0.510788
     29          1           0        4.674488    0.221601   -1.079594
     30          1           0        4.540285   -0.599277    0.517512
     31          1           0        4.296736   -1.537410   -0.984820
 ---------------------------------------------------------------------
                    Distance matrix (angstroms):
                    1          2          3          4          5
     1  C    0.000000
     2  C    1.558152   0.000000
     3  C    2.438210   2.302501   0.000000
     4  C    1.519189   2.305634   1.503124   0.000000
     5  H    1.094697   2.206026   3.348857   2.183929   0.000000
     6  H    2.298543   3.366134   2.288484   1.086355   2.703505
     7  C    2.409205   1.551893   1.525215   2.435482   3.395401
     8  H    3.402472   2.204966   2.195283   3.359651   4.295881
     9  H    2.730773   2.234673   2.198265   2.945651   3.787698
    10  C    2.342130   1.505923   2.404566   2.399812   2.612607
    11  H    3.378966   2.320496   3.274482   3.458665   3.520861
    12  C    2.420658   2.285114   1.527863   1.522871   2.883712
    13  H    3.389538   3.349164   2.292716   2.277169   3.689613
    14  H    2.255890   1.094048   3.345193   3.336358   2.644691
    15  H    3.418706   3.367277   1.089153   2.268518   4.330628
    16  N    2.489180   3.308951   3.351909   2.995538   3.293628
    17  N    1.481765   2.519831   3.269460   2.556666   2.086496
    18  C    3.011101   3.941253   3.101416   2.796526   3.840944
    19  C    2.492240   3.201976   4.545493   3.852831   2.648957
    20  O    3.611889   4.249347   5.451528   4.864674   3.823077
    21  O    3.879478   4.497238   3.198319   3.393515   4.821758
    22  O    2.596724   3.085547   4.893008   4.102418   2.304214
    23  O    3.240692   4.525316   3.697650   2.895598   3.760638
    24  C    4.403039   5.610543   4.290870   3.646221   4.897849
    25  H    4.852850   6.202948   5.046630   4.156815   5.126538
    26  H    5.201313   6.318491   4.943877   4.521541   5.788664
    27  H    4.404810   5.433985   3.757764   3.319007   4.969613
    28  C    4.015854   4.336123   6.281514   5.522217   3.621183
    29  H    4.381135   4.563685   6.642804   5.851662   3.797025
    30  H    4.523820   4.578102   6.576188   6.035880   4.346947
    31  H    4.562468   5.157958   6.904146   6.007466   4.111593
                    6          7          8          9         10
     6  H    0.000000
     7  C    3.432567   0.000000
     8  H    4.354652   1.099077   0.000000
     9  H    3.799462   1.100295   1.792798   0.000000
    10  C    3.358492   2.367119   2.664806   3.372751   0.000000
    11  H    4.376598   3.091251   3.025479   4.132409   1.088634
    12  C    2.272418   2.440506   2.927136   3.379007   1.476689
    13  H    2.622237   3.423251   3.758872   4.359125   2.280971
    14  H    4.359156   2.274951   2.675906   2.689657   2.241519
    15  H    2.667287   2.309836   2.737288   2.730081   3.389063
    16  N    3.316582   3.109511   4.126342   2.458719   4.517995
    17  N    3.044598   2.957733   4.004201   2.684845   3.708850
    18  C    2.754949   3.435806   4.431849   2.924553   4.834634
    19  C    4.357993   3.924864   4.835316   3.579156   4.485661
    20  O    5.288991   4.749369   5.614049   4.173422   5.613126
    21  O    3.378587   3.582149   4.393434   2.988806   5.315818
    22  O    4.694918   4.250246   5.047688   4.207565   4.140707
    23  O    2.394272   4.341526   5.389347   4.054463   5.190201
    24  C    2.858119   5.240467   6.198984   5.025549   6.042923
    25  H    3.218549   6.046564   7.037584   5.912323   6.529958
    26  H    3.849560   5.769338   6.681636   5.381804   6.880394
    27  H    2.507127   4.929264   5.786674   4.876727   5.653676
    28  C    6.090833   5.513088   6.205746   5.406239   5.346606
    29  H    6.446298   5.915179   6.523301   5.990436   5.324581
    30  H    6.701090   5.591035   6.171190   5.361562   5.734659
    31  H    6.416009   6.264188   7.050142   6.067742   6.167791
                   11         12         13         14         15
    11  H    0.000000
    12  C    2.295998   0.000000
    13  H    2.782339   1.088120   0.000000
    14  H    2.710476   3.323581   4.352589   0.000000
    15  H    4.150203   2.300003   2.675818   4.376509   0.000000
    16  N    5.529107   4.282134   5.201929   3.711665   3.834493
    17  N    4.703667   3.749994   4.720497   2.835787   4.055229
    18  C    5.887554   4.162131   4.880838   4.623494   3.231099
    19  C    5.333918   4.879446   5.878992   3.017905   5.395395
    20  O    6.445519   5.966927   6.974232   3.976097   6.197014
    21  O    6.302258   4.518259   5.146822   5.221510   2.957840
    22  O    4.828545   4.838587   5.798011   2.676544   5.880872
    23  O    6.276275   4.383374   4.932336   5.262131   3.844900
    24  C    7.097591   4.965311   5.254695   6.462384   4.107877
    25  H    7.576913   5.463832   5.654130   7.037246   4.952228
    26  H    7.932874   5.825228   6.151777   7.120390   4.629183
    27  H    6.651964   4.409555   4.543620   6.394023   3.390382
    28  C    5.879476   6.190032   7.134188   3.690551   7.275025
    29  H    5.700239   6.311889   7.183752   3.871317   7.689594
    30  H    6.204585   6.652978   7.659426   3.772086   7.542303
    31  H    6.785630   6.854153   7.764272   4.639099   7.846057
                   16         17         18         19         20
    16  N    0.000000
    17  N    1.317008   0.000000
    18  C    1.389605   2.347595   0.000000
    19  C    2.288660   1.419665   3.557698   0.000000
    20  O    2.631136   2.311896   3.933830   1.194536   0.000000
    21  O    2.284997   3.367300   1.202530   4.560603   4.853834
    22  O    3.432971   2.260286   4.595780   1.330038   2.243649
    23  O    2.263116   2.750954   1.340667   3.896055   4.337379
    24  C    3.563851   4.134099   2.333260   5.316452   5.731041
    25  H    4.282624   4.644182   3.226274   5.711634   6.138048
    26  H    3.880786   4.715884   2.614850   5.821724   6.047037
    27  H    3.952756   4.450871   2.653340   5.770622   6.328162
    28  C    4.609902   3.575837   5.853011   2.327691   2.648686
    29  H    5.437458   4.280263   6.612906   3.216519   3.711802
    30  H    4.797431   3.946711   6.139082   2.634312   2.651749
    31  H    4.844554   3.919532   6.033169   2.621718   2.637953
                   21         22         23         24         25
    21  O    0.000000
    22  O    5.612399   0.000000
    23  O    2.247989   4.794922   0.000000
    24  C    2.638678   6.176516   1.421395   0.000000
    25  H    3.703981   6.462005   2.022358   1.094105   0.000000
    26  H    2.582454   6.828216   2.077760   1.097592   1.801505
    27  H    2.681965   6.528110   2.078072   1.099686   1.801428
    28  C    6.866287   1.424472   6.033682   7.427092   7.647998
    29  H    7.632223   2.021519   6.725179   8.079914   8.243979
    30  H    7.041605   2.076701   6.524515   7.943290   8.277897
    31  H    7.109571   2.077636   6.054354   7.418822   7.530188
                   26         27         28         29         30
    26  H    0.000000
    27  H    1.785638   0.000000
    28  C    8.023790   7.865107   0.000000
    29  H    8.768952   8.437869   1.093409   0.000000
    30  H    8.441887   8.374265   1.097409   1.800722   0.000000
    31  H    7.970790   7.988452   1.097414   1.801610   1.787851
                   31
    31  H    0.000000
 Stoichiometry    C11H14N2O4(3)
 Framework group  C1[X(C11H14N2O4)]
 Deg. of freedom    87
 Full point group                 C1      NOp   1
 Largest Abelian subgroup         C1      NOp   1
 Largest concise Abelian subgroup C1      NOp   1
                         Standard orientation:                         
 ---------------------------------------------------------------------
 Center     Atomic      Atomic             Coordinates (Angstroms)
 Number     Number       Type             X           Y           Z
 ---------------------------------------------------------------------
      1          6           0        0.351069    0.715809   -0.571509
      2          6           0        0.691118    1.876900    0.410363
      3          6           0       -1.606556    1.737294    0.462483
      4          6           0       -1.106662    1.081090   -0.794054
      5          1           0        0.942105    0.785550   -1.490298
      6          1           0       -1.750778    0.546171   -1.486256
      7          6           0       -0.448641    1.744021    1.455191
      8          1           0       -0.477416    2.610987    2.130107
      9          1           0       -0.396301    0.821691    2.052867
     10          6           0        0.212479    3.048003   -0.406476
     11          1           0        0.548872    4.078699   -0.308350
     12          6           0       -1.160430    2.601019   -0.716210
     13          1           0       -1.876682    3.159791   -1.315178
     14          1           0        1.719701    1.891211    0.782860
     15          1           0       -2.650773    1.662317    0.762888
     16          7           0       -0.199232   -1.285861    0.801992
     17          7           0        0.624370   -0.612490    0.025615
     18          6           0       -1.550978   -1.363508    0.489333
     19          6           0        1.973483   -1.043157    0.124961
     20          8           0        2.319458   -2.038247    0.688001
     21          8           0       -2.428322   -1.237454    1.302017
     22          8           0        2.780813   -0.198281   -0.510179
     23          8           0       -1.750736   -1.741939   -0.781208
     24          6           0       -3.109073   -1.945574   -1.147017
     25          1           0       -3.098845   -2.291736   -2.184867
     26          1           0       -3.574171   -2.695976   -0.494874
     27          1           0       -3.673628   -1.005706   -1.061972
     28          6           0        4.159314   -0.557244   -0.510788
     29          1           0        4.674488    0.221602   -1.079594
     30          1           0        4.540285   -0.599276    0.517512
     31          1           0        4.296736   -1.537410   -0.984820
 ---------------------------------------------------------------------
 Rotational constants (GHZ):      0.6375418      0.4593998      0.3188173
 Standard basis: VSTO-6G (5D, 7F)
 There are    82 symmetry adapted cartesian basis functions of A   symmetry.
 There are    82 symmetry adapted basis functions of A   symmetry.
    82 basis functions,   492 primitive gaussians,    82 cartesian basis functions
    47 alpha electrons       45 beta electrons
       nuclear repulsion energy       745.9013876254 Hartrees.
 Integral buffers will be    131072 words long.
 Regular integral format.
 Two-electron integral symmetry is turned off.
 Nuclear repulsion after empirical dispersion term =      745.8908045304 Hartrees.
 ------------------------------------------------------------------------------
 Polarizable Continuum Model (PCM)
 =================================
 Model                : C-PCM.
 Atomic radii         : UFF (Universal Force Field).
 Polarization charges : Total charges.
 Charge compensation  : None.
 Solution method      : On-the-fly selection.
 Cavity type          : Scaled VdW (van der Waals Surface) (Alpha=1.100).
 Cavity algorithm     : GePol (No added spheres)
                        Default sphere list used, NSphG=   31.
                        Lebedev-Laikov grids with approx.  5.0 points / Ang**2.
                        Smoothing algorithm: Karplus/York (Gamma=1.0000).
                        Polarization charges: spherical gaussians, with
                                              point-specific exponents (IZeta= 3).
                        Self-potential: point-specific (ISelfS= 7).
                        Self-field    : sphere-specific E.n sum rule (ISelfD= 2).
 1st derivatives      : Analytical E(r).r(x)/FMM algorithm (CHGder, D1EAlg=3).
                        Cavity 1st derivative terms included.
 Solvent              : Toluene, Eps=   2.374100 Eps(inf)=   2.238315
 ------------------------------------------------------------------------------
 Do NDO integrals.
 One-electron integrals computed using PRISM.
 NBasis=    82 RedAO= F EigKep=  0.00D+00  NBF=    82
 NBsUse=    82 1.00D-04 EigRej=  0.00D+00 NBFU=    82
 Simple Huckel Guess.
 Initial guess <Sx>= 0.0000 <Sy>= 0.0000 <Sz>= 1.0000 <S**2>= 2.0000 S= 1.0000
 Overlap will be assumed to be unity.
 Keep J ints in memory in canonical form, NReq=8719127.
 Requested convergence on RMS density matrix=1.00D-08 within 128 cycles.
 Requested convergence on MAX density matrix=1.00D-06.
 Requested convergence on             energy=1.00D-06.
 No special actions if energy rises.
 Inv3:  Mode=1 IEnd=    14999088.
 Iteration    1 A*A^-1 deviation from unit magnitude is 5.55D-15 for   2215.
 Iteration    1 A*A^-1 deviation from orthogonality  is 3.29D-15 for   1525   1211.
 Iteration    1 A^-1*A deviation from unit magnitude is 5.55D-15 for   2215.
 Iteration    1 A^-1*A deviation from orthogonality  is 2.26D-15 for   1594    550.
 Error on total polarization charges = -0.00022
 SCF Done:  E(UPM6D3) = -0.952381641661E-01 A.U. after   20 cycles
            NFock= 19  Conv=0.78D-08     -V/T= 0.9984
 <Sx>= 0.0000 <Sy>= 0.0000 <Sz>= 1.0000 <S**2>= 2.0146 S= 1.0049
 <L.S>= 0.000000000000E+00
 Annihilation of the first spin contaminant:
 S**2 before annihilation     2.0146,   after     2.0001

 **********************************************************************

            Population analysis using the SCF density.

 **********************************************************************

 Orbital symmetries:
 Alpha Orbitals:
       Occupied  (A) (A) (A) (A) (A) (A) (A) (A) (A) (A) (A) (A)
                 (A) (A) (A) (A) (A) (A) (A) (A) (A) (A) (A) (A)
                 (A) (A) (A) (A) (A) (A) (A) (A) (A) (A) (A) (A)
                 (A) (A) (A) (A) (A) (A) (A) (A) (A) (A) (A)
       Virtual   (A) (A) (A) (A) (A) (A) (A) (A) (A) (A) (A) (A)
                 (A) (A) (A) (A) (A) (A) (A) (A) (A) (A) (A) (A)
                 (A) (A) (A) (A) (A) (A) (A) (A) (A) (A) (A)
 Beta  Orbitals:
       Occupied  (A) (A) (A) (A) (A) (A) (A) (A) (A) (A) (A) (A)
                 (A) (A) (A) (A) (A) (A) (A) (A) (A) (A) (A) (A)
                 (A) (A) (A) (A) (A) (A) (A) (A) (A) (A) (A) (A)
                 (A) (A) (A) (A) (A) (A) (A) (A) (A)
       Virtual   (A) (A) (A) (A) (A) (A) (A) (A) (A) (A) (A) (A)
                 (A) (A) (A) (A) (A) (A) (A) (A) (A) (A) (A) (A)
                 (A) (A) (A) (A) (A) (A) (A) (A) (A) (A) (A) (A)
                 (A)
 The electronic state is 3-A.
 Alpha  occ. eigenvalues --   -1.31307  -1.23810  -1.22471  -1.20774  -1.18702
 Alpha  occ. eigenvalues --   -1.16015  -1.09527  -0.98075  -0.97603  -0.95322
 Alpha  occ. eigenvalues --   -0.92309  -0.90694  -0.83734  -0.78541  -0.75416
 Alpha  occ. eigenvalues --   -0.73314  -0.71538  -0.70711  -0.69021  -0.67005
 Alpha  occ. eigenvalues --   -0.65109  -0.64270  -0.63766  -0.62701  -0.60038
 Alpha  occ. eigenvalues --   -0.57136  -0.56736  -0.56188  -0.54038  -0.53444
 Alpha  occ. eigenvalues --   -0.52655  -0.52338  -0.50283  -0.49600  -0.49136
 Alpha  occ. eigenvalues --   -0.48355  -0.47395  -0.46454  -0.45438  -0.44644
 Alpha  occ. eigenvalues --   -0.44567  -0.43404  -0.42954  -0.42257  -0.41107
 Alpha  occ. eigenvalues --   -0.37003  -0.34854
 Alpha virt. eigenvalues --   -0.03010   0.00769   0.01842   0.03639   0.04878
 Alpha virt. eigenvalues --    0.07114   0.08072   0.09467   0.09957   0.10239
 Alpha virt. eigenvalues --    0.11203   0.11334   0.11837   0.12313   0.12795
 Alpha virt. eigenvalues --    0.14131   0.14945   0.15744   0.15889   0.16418
 Alpha virt. eigenvalues --    0.17000   0.17507   0.17771   0.18218   0.18657
 Alpha virt. eigenvalues --    0.18796   0.19475   0.19783   0.20160   0.20339
 Alpha virt. eigenvalues --    0.20682   0.20871   0.20905   0.21075   0.22256
  Beta  occ. eigenvalues --   -1.28816  -1.23500  -1.21820  -1.20464  -1.18416
  Beta  occ. eigenvalues --   -1.15639  -1.07787  -0.97808  -0.97416  -0.94880
  Beta  occ. eigenvalues --   -0.91615  -0.89901  -0.83340  -0.77668  -0.74878
  Beta  occ. eigenvalues --   -0.72895  -0.71015  -0.70172  -0.68572  -0.66028
  Beta  occ. eigenvalues --   -0.64609  -0.64071  -0.63255  -0.62511  -0.58888
  Beta  occ. eigenvalues --   -0.56775  -0.56182  -0.55276  -0.53572  -0.53172
  Beta  occ. eigenvalues --   -0.51474  -0.50062  -0.49665  -0.49334  -0.48881
  Beta  occ. eigenvalues --   -0.47586  -0.46962  -0.44742  -0.44318  -0.44215
  Beta  occ. eigenvalues --   -0.43604  -0.43044  -0.42425  -0.41702  -0.39317
  Beta virt. eigenvalues --   -0.05538  -0.01617   0.00419   0.02007   0.02085
  Beta virt. eigenvalues --    0.04936   0.06008   0.07801   0.09215   0.09654
  Beta virt. eigenvalues --    0.10259   0.10843   0.11554   0.11814   0.12200
  Beta virt. eigenvalues --    0.12965   0.13558   0.14549   0.15304   0.16036
  Beta virt. eigenvalues --    0.16176   0.17222   0.17508   0.17723   0.17984
  Beta virt. eigenvalues --    0.18223   0.18698   0.19396   0.19645   0.19805
  Beta virt. eigenvalues --    0.20204   0.20361   0.20738   0.20935   0.20952
  Beta virt. eigenvalues --    0.21879   0.22306
          Condensed to atoms (all electrons):
               1          2          3          4          5          6
     1  C    3.975016   0.000000   0.000000   0.000000   0.000000   0.000000
     2  C    0.000000   4.125732   0.000000   0.000000   0.000000   0.000000
     3  C    0.000000   0.000000   4.115173   0.000000   0.000000   0.000000
     4  C    0.000000   0.000000   0.000000   4.242235   0.000000   0.000000
     5  H    0.000000   0.000000   0.000000   0.000000   0.830321   0.000000
     6  H    0.000000   0.000000   0.000000   0.000000   0.000000   0.818538
     7  C    0.000000   0.000000   0.000000   0.000000   0.000000   0.000000
     8  H    0.000000   0.000000   0.000000   0.000000   0.000000   0.000000
     9  H    0.000000   0.000000   0.000000   0.000000   0.000000   0.000000
    10  C    0.000000   0.000000   0.000000   0.000000   0.000000   0.000000
    11  H    0.000000   0.000000   0.000000   0.000000   0.000000   0.000000
    12  C    0.000000   0.000000   0.000000   0.000000   0.000000   0.000000
    13  H    0.000000   0.000000   0.000000   0.000000   0.000000   0.000000
    14  H    0.000000   0.000000   0.000000   0.000000   0.000000   0.000000
    15  H    0.000000   0.000000   0.000000   0.000000   0.000000   0.000000
    16  N    0.000000   0.000000   0.000000   0.000000   0.000000   0.000000
    17  N    0.000000   0.000000   0.000000   0.000000   0.000000   0.000000
    18  C    0.000000   0.000000   0.000000   0.000000   0.000000   0.000000
    19  C    0.000000   0.000000   0.000000   0.000000   0.000000   0.000000
    20  O    0.000000   0.000000   0.000000   0.000000   0.000000   0.000000
    21  O    0.000000   0.000000   0.000000   0.000000   0.000000   0.000000
    22  O    0.000000   0.000000   0.000000   0.000000   0.000000   0.000000
    23  O    0.000000   0.000000   0.000000   0.000000   0.000000   0.000000
    24  C    0.000000   0.000000   0.000000   0.000000   0.000000   0.000000
    25  H    0.000000   0.000000   0.000000   0.000000   0.000000   0.000000
    26  H    0.000000   0.000000   0.000000   0.000000   0.000000   0.000000
    27  H    0.000000   0.000000   0.000000   0.000000   0.000000   0.000000
    28  C    0.000000   0.000000   0.000000   0.000000   0.000000   0.000000
    29  H    0.000000   0.000000   0.000000   0.000000   0.000000   0.000000
    30  H    0.000000   0.000000   0.000000   0.000000   0.000000   0.000000
    31  H    0.000000   0.000000   0.000000   0.000000   0.000000   0.000000
               7          8          9         10         11         12
     1  C    0.000000   0.000000   0.000000   0.000000   0.000000   0.000000
     2  C    0.000000   0.000000   0.000000   0.000000   0.000000   0.000000
     3  C    0.000000   0.000000   0.000000   0.000000   0.000000   0.000000
     4  C    0.000000   0.000000   0.000000   0.000000   0.000000   0.000000
     5  H    0.000000   0.000000   0.000000   0.000000   0.000000   0.000000
     6  H    0.000000   0.000000   0.000000   0.000000   0.000000   0.000000
     7  C    4.276293   0.000000   0.000000   0.000000   0.000000   0.000000
     8  H    0.000000   0.843325   0.000000   0.000000   0.000000   0.000000
     9  H    0.000000   0.000000   0.834478   0.000000   0.000000   0.000000
    10  C    0.000000   0.000000   0.000000   4.162137   0.000000   0.000000
    11  H    0.000000   0.000000   0.000000   0.000000   0.840847   0.000000
    12  C    0.000000   0.000000   0.000000   0.000000   0.000000   4.167326
    13  H    0.000000   0.000000   0.000000   0.000000   0.000000   0.000000
    14  H    0.000000   0.000000   0.000000   0.000000   0.000000   0.000000
    15  H    0.000000   0.000000   0.000000   0.000000   0.000000   0.000000
    16  N    0.000000   0.000000   0.000000   0.000000   0.000000   0.000000
    17  N    0.000000   0.000000   0.000000   0.000000   0.000000   0.000000
    18  C    0.000000   0.000000   0.000000   0.000000   0.000000   0.000000
    19  C    0.000000   0.000000   0.000000   0.000000   0.000000   0.000000
    20  O    0.000000   0.000000   0.000000   0.000000   0.000000   0.000000
    21  O    0.000000   0.000000   0.000000   0.000000   0.000000   0.000000
    22  O    0.000000   0.000000   0.000000   0.000000   0.000000   0.000000
    23  O    0.000000   0.000000   0.000000   0.000000   0.000000   0.000000
    24  C    0.000000   0.000000   0.000000   0.000000   0.000000   0.000000
    25  H    0.000000   0.000000   0.000000   0.000000   0.000000   0.000000
    26  H    0.000000   0.000000   0.000000   0.000000   0.000000   0.000000
    27  H    0.000000   0.000000   0.000000   0.000000   0.000000   0.000000
    28  C    0.000000   0.000000   0.000000   0.000000   0.000000   0.000000
    29  H    0.000000   0.000000   0.000000   0.000000   0.000000   0.000000
    30  H    0.000000   0.000000   0.000000   0.000000   0.000000   0.000000
    31  H    0.000000   0.000000   0.000000   0.000000   0.000000   0.000000
              13         14         15         16         17         18
     1  C    0.000000   0.000000   0.000000   0.000000   0.000000   0.000000
     2  C    0.000000   0.000000   0.000000   0.000000   0.000000   0.000000
     3  C    0.000000   0.000000   0.000000   0.000000   0.000000   0.000000
     4  C    0.000000   0.000000   0.000000   0.000000   0.000000   0.000000
     5  H    0.000000   0.000000   0.000000   0.000000   0.000000   0.000000
     6  H    0.000000   0.000000   0.000000   0.000000   0.000000   0.000000
     7  C    0.000000   0.000000   0.000000   0.000000   0.000000   0.000000
     8  H    0.000000   0.000000   0.000000   0.000000   0.000000   0.000000
     9  H    0.000000   0.000000   0.000000   0.000000   0.000000   0.000000
    10  C    0.000000   0.000000   0.000000   0.000000   0.000000   0.000000
    11  H    0.000000   0.000000   0.000000   0.000000   0.000000   0.000000
    12  C    0.000000   0.000000   0.000000   0.000000   0.000000   0.000000
    13  H    0.832897   0.000000   0.000000   0.000000   0.000000   0.000000
    14  H    0.000000   0.846087   0.000000   0.000000   0.000000   0.000000
    15  H    0.000000   0.000000   0.832451   0.000000   0.000000   0.000000
    16  N    0.000000   0.000000   0.000000   5.318547   0.000000   0.000000
    17  N    0.000000   0.000000   0.000000   0.000000   5.099643   0.000000
    18  C    0.000000   0.000000   0.000000   0.000000   0.000000   3.303840
    19  C    0.000000   0.000000   0.000000   0.000000   0.000000   0.000000
    20  O    0.000000   0.000000   0.000000   0.000000   0.000000   0.000000
    21  O    0.000000   0.000000   0.000000   0.000000   0.000000   0.000000
    22  O    0.000000   0.000000   0.000000   0.000000   0.000000   0.000000
    23  O    0.000000   0.000000   0.000000   0.000000   0.000000   0.000000
    24  C    0.000000   0.000000   0.000000   0.000000   0.000000   0.000000
    25  H    0.000000   0.000000   0.000000   0.000000   0.000000   0.000000
    26  H    0.000000   0.000000   0.000000   0.000000   0.000000   0.000000
    27  H    0.000000   0.000000   0.000000   0.000000   0.000000   0.000000
    28  C    0.000000   0.000000   0.000000   0.000000   0.000000   0.000000
    29  H    0.000000   0.000000   0.000000   0.000000   0.000000   0.000000
    30  H    0.000000   0.000000   0.000000   0.000000   0.000000   0.000000
    31  H    0.000000   0.000000   0.000000   0.000000   0.000000   0.000000
              19         20         21         22         23         24
     1  C    0.000000   0.000000   0.000000   0.000000   0.000000   0.000000
     2  C    0.000000   0.000000   0.000000   0.000000   0.000000   0.000000
     3  C    0.000000   0.000000   0.000000   0.000000   0.000000   0.000000
     4  C    0.000000   0.000000   0.000000   0.000000   0.000000   0.000000
     5  H    0.000000   0.000000   0.000000   0.000000   0.000000   0.000000
     6  H    0.000000   0.000000   0.000000   0.000000   0.000000   0.000000
     7  C    0.000000   0.000000   0.000000   0.000000   0.000000   0.000000
     8  H    0.000000   0.000000   0.000000   0.000000   0.000000   0.000000
     9  H    0.000000   0.000000   0.000000   0.000000   0.000000   0.000000
    10  C    0.000000   0.000000   0.000000   0.000000   0.000000   0.000000
    11  H    0.000000   0.000000   0.000000   0.000000   0.000000   0.000000
    12  C    0.000000   0.000000   0.000000   0.000000   0.000000   0.000000
    13  H    0.000000   0.000000   0.000000   0.000000   0.000000   0.000000
    14  H    0.000000   0.000000   0.000000   0.000000   0.000000   0.000000
    15  H    0.000000   0.000000   0.000000   0.000000   0.000000   0.000000
    16  N    0.000000   0.000000   0.000000   0.000000   0.000000   0.000000
    17  N    0.000000   0.000000   0.000000   0.000000   0.000000   0.000000
    18  C    0.000000   0.000000   0.000000   0.000000   0.000000   0.000000
    19  C    3.310454   0.000000   0.000000   0.000000   0.000000   0.000000
    20  O    0.000000   6.480979   0.000000   0.000000   0.000000   0.000000
    21  O    0.000000   0.000000   6.531412   0.000000   0.000000   0.000000
    22  O    0.000000   0.000000   0.000000   6.397383   0.000000   0.000000
    23  O    0.000000   0.000000   0.000000   0.000000   6.415880   0.000000
    24  C    0.000000   0.000000   0.000000   0.000000   0.000000   4.191058
    25  H    0.000000   0.000000   0.000000   0.000000   0.000000   0.000000
    26  H    0.000000   0.000000   0.000000   0.000000   0.000000   0.000000
    27  H    0.000000   0.000000   0.000000   0.000000   0.000000   0.000000
    28  C    0.000000   0.000000   0.000000   0.000000   0.000000   0.000000
    29  H    0.000000   0.000000   0.000000   0.000000   0.000000   0.000000
    30  H    0.000000   0.000000   0.000000   0.000000   0.000000   0.000000
    31  H    0.000000   0.000000   0.000000   0.000000   0.000000   0.000000
              25         26         27         28         29         30
     1  C    0.000000   0.000000   0.000000   0.000000   0.000000   0.000000
     2  C    0.000000   0.000000   0.000000   0.000000   0.000000   0.000000
     3  C    0.000000   0.000000   0.000000   0.000000   0.000000   0.000000
     4  C    0.000000   0.000000   0.000000   0.000000   0.000000   0.000000
     5  H    0.000000   0.000000   0.000000   0.000000   0.000000   0.000000
     6  H    0.000000   0.000000   0.000000   0.000000   0.000000   0.000000
     7  C    0.000000   0.000000   0.000000   0.000000   0.000000   0.000000
     8  H    0.000000   0.000000   0.000000   0.000000   0.000000   0.000000
     9  H    0.000000   0.000000   0.000000   0.000000   0.000000   0.000000
    10  C    0.000000   0.000000   0.000000   0.000000   0.000000   0.000000
    11  H    0.000000   0.000000   0.000000   0.000000   0.000000   0.000000
    12  C    0.000000   0.000000   0.000000   0.000000   0.000000   0.000000
    13  H    0.000000   0.000000   0.000000   0.000000   0.000000   0.000000
    14  H    0.000000   0.000000   0.000000   0.000000   0.000000   0.000000
    15  H    0.000000   0.000000   0.000000   0.000000   0.000000   0.000000
    16  N    0.000000   0.000000   0.000000   0.000000   0.000000   0.000000
    17  N    0.000000   0.000000   0.000000   0.000000   0.000000   0.000000
    18  C    0.000000   0.000000   0.000000   0.000000   0.000000   0.000000
    19  C    0.000000   0.000000   0.000000   0.000000   0.000000   0.000000
    20  O    0.000000   0.000000   0.000000   0.000000   0.000000   0.000000
    21  O    0.000000   0.000000   0.000000   0.000000   0.000000   0.000000
    22  O    0.000000   0.000000   0.000000   0.000000   0.000000   0.000000
    23  O    0.000000   0.000000   0.000000   0.000000   0.000000   0.000000
    24  C    0.000000   0.000000   0.000000   0.000000   0.000000   0.000000
    25  H    0.830585   0.000000   0.000000   0.000000   0.000000   0.000000
    26  H    0.000000   0.841736   0.000000   0.000000   0.000000   0.000000
    27  H    0.000000   0.000000   0.848669   0.000000   0.000000   0.000000
    28  C    0.000000   0.000000   0.000000   4.182843   0.000000   0.000000
    29  H    0.000000   0.000000   0.000000   0.000000   0.824457   0.000000
    30  H    0.000000   0.000000   0.000000   0.000000   0.000000   0.839920
    31  H    0.000000   0.000000   0.000000   0.000000   0.000000   0.000000
              31
     1  C    0.000000
     2  C    0.000000
     3  C    0.000000
     4  C    0.000000
     5  H    0.000000
     6  H    0.000000
     7  C    0.000000
     8  H    0.000000
     9  H    0.000000
    10  C    0.000000
    11  H    0.000000
    12  C    0.000000
    13  H    0.000000
    14  H    0.000000
    15  H    0.000000
    16  N    0.000000
    17  N    0.000000
    18  C    0.000000
    19  C    0.000000
    20  O    0.000000
    21  O    0.000000
    22  O    0.000000
    23  O    0.000000
    24  C    0.000000
    25  H    0.000000
    26  H    0.000000
    27  H    0.000000
    28  C    0.000000
    29  H    0.000000
    30  H    0.000000
    31  H    0.839740
          Atomic-Atomic Spin Densities.
               1          2          3          4          5          6
     1  C   -0.002638   0.000000   0.000000   0.000000   0.000000   0.000000
     2  C    0.000000  -0.038287   0.000000   0.000000   0.000000   0.000000
     3  C    0.000000   0.000000   0.075006   0.000000   0.000000   0.000000
     4  C    0.000000   0.000000   0.000000   0.039756   0.000000   0.000000
     5  H    0.000000   0.000000   0.000000   0.000000   0.001083   0.000000
     6  H    0.000000   0.000000   0.000000   0.000000   0.000000  -0.001350
     7  C    0.000000   0.000000   0.000000   0.000000   0.000000   0.000000
     8  H    0.000000   0.000000   0.000000   0.000000   0.000000   0.000000
     9  H    0.000000   0.000000   0.000000   0.000000   0.000000   0.000000
    10  C    0.000000   0.000000   0.000000   0.000000   0.000000   0.000000
    11  H    0.000000   0.000000   0.000000   0.000000   0.000000   0.000000
    12  C    0.000000   0.000000   0.000000   0.000000   0.000000   0.000000
    13  H    0.000000   0.000000   0.000000   0.000000   0.000000   0.000000
    14  H    0.000000   0.000000   0.000000   0.000000   0.000000   0.000000
    15  H    0.000000   0.000000   0.000000   0.000000   0.000000   0.000000
    16  N    0.000000   0.000000   0.000000   0.000000   0.000000   0.000000
    17  N    0.000000   0.000000   0.000000   0.000000   0.000000   0.000000
    18  C    0.000000   0.000000   0.000000   0.000000   0.000000   0.000000
    19  C    0.000000   0.000000   0.000000   0.000000   0.000000   0.000000
    20  O    0.000000   0.000000   0.000000   0.000000   0.000000   0.000000
    21  O    0.000000   0.000000   0.000000   0.000000   0.000000   0.000000
    22  O    0.000000   0.000000   0.000000   0.000000   0.000000   0.000000
    23  O    0.000000   0.000000   0.000000   0.000000   0.000000   0.000000
    24  C    0.000000   0.000000   0.000000   0.000000   0.000000   0.000000
    25  H    0.000000   0.000000   0.000000   0.000000   0.000000   0.000000
    26  H    0.000000   0.000000   0.000000   0.000000   0.000000   0.000000
    27  H    0.000000   0.000000   0.000000   0.000000   0.000000   0.000000
    28  C    0.000000   0.000000   0.000000   0.000000   0.000000   0.000000
    29  H    0.000000   0.000000   0.000000   0.000000   0.000000   0.000000
    30  H    0.000000   0.000000   0.000000   0.000000   0.000000   0.000000
    31  H    0.000000   0.000000   0.000000   0.000000   0.000000   0.000000
               7          8          9         10         11         12
     1  C    0.000000   0.000000   0.000000   0.000000   0.000000   0.000000
     2  C    0.000000   0.000000   0.000000   0.000000   0.000000   0.000000
     3  C    0.000000   0.000000   0.000000   0.000000   0.000000   0.000000
     4  C    0.000000   0.000000   0.000000   0.000000   0.000000   0.000000
     5  H    0.000000   0.000000   0.000000   0.000000   0.000000   0.000000
     6  H    0.000000   0.000000   0.000000   0.000000   0.000000   0.000000
     7  C    0.034387   0.000000   0.000000   0.000000   0.000000   0.000000
     8  H    0.000000  -0.000787   0.000000   0.000000   0.000000   0.000000
     9  H    0.000000   0.000000  -0.000960   0.000000   0.000000   0.000000
    10  C    0.000000   0.000000   0.000000   1.010102   0.000000   0.000000
    11  H    0.000000   0.000000   0.000000   0.000000  -0.026856   0.000000
    12  C    0.000000   0.000000   0.000000   0.000000   0.000000  -0.089436
    13  H    0.000000   0.000000   0.000000   0.000000   0.000000   0.000000
    14  H    0.000000   0.000000   0.000000   0.000000   0.000000   0.000000
    15  H    0.000000   0.000000   0.000000   0.000000   0.000000   0.000000
    16  N    0.000000   0.000000   0.000000   0.000000   0.000000   0.000000
    17  N    0.000000   0.000000   0.000000   0.000000   0.000000   0.000000
    18  C    0.000000   0.000000   0.000000   0.000000   0.000000   0.000000
    19  C    0.000000   0.000000   0.000000   0.000000   0.000000   0.000000
    20  O    0.000000   0.000000   0.000000   0.000000   0.000000   0.000000
    21  O    0.000000   0.000000   0.000000   0.000000   0.000000   0.000000
    22  O    0.000000   0.000000   0.000000   0.000000   0.000000   0.000000
    23  O    0.000000   0.000000   0.000000   0.000000   0.000000   0.000000
    24  C    0.000000   0.000000   0.000000   0.000000   0.000000   0.000000
    25  H    0.000000   0.000000   0.000000   0.000000   0.000000   0.000000
    26  H    0.000000   0.000000   0.000000   0.000000   0.000000   0.000000
    27  H    0.000000   0.000000   0.000000   0.000000   0.000000   0.000000
    28  C    0.000000   0.000000   0.000000   0.000000   0.000000   0.000000
    29  H    0.000000   0.000000   0.000000   0.000000   0.000000   0.000000
    30  H    0.000000   0.000000   0.000000   0.000000   0.000000   0.000000
    31  H    0.000000   0.000000   0.000000   0.000000   0.000000   0.000000
              13         14         15         16         17         18
     1  C    0.000000   0.000000   0.000000   0.000000   0.000000   0.000000
     2  C    0.000000   0.000000   0.000000   0.000000   0.000000   0.000000
     3  C    0.000000   0.000000   0.000000   0.000000   0.000000   0.000000
     4  C    0.000000   0.000000   0.000000   0.000000   0.000000   0.000000
     5  H    0.000000   0.000000   0.000000   0.000000   0.000000   0.000000
     6  H    0.000000   0.000000   0.000000   0.000000   0.000000   0.000000
     7  C    0.000000   0.000000   0.000000   0.000000   0.000000   0.000000
     8  H    0.000000   0.000000   0.000000   0.000000   0.000000   0.000000
     9  H    0.000000   0.000000   0.000000   0.000000   0.000000   0.000000
    10  C    0.000000   0.000000   0.000000   0.000000   0.000000   0.000000
    11  H    0.000000   0.000000   0.000000   0.000000   0.000000   0.000000
    12  C    0.000000   0.000000   0.000000   0.000000   0.000000   0.000000
    13  H    0.002708   0.000000   0.000000   0.000000   0.000000   0.000000
    14  H    0.000000   0.001420   0.000000   0.000000   0.000000   0.000000
    15  H    0.000000   0.000000  -0.001754   0.000000   0.000000   0.000000
    16  N    0.000000   0.000000   0.000000   0.625058   0.000000   0.000000
    17  N    0.000000   0.000000   0.000000   0.000000   0.342599   0.000000
    18  C    0.000000   0.000000   0.000000   0.000000   0.000000  -0.028197
    19  C    0.000000   0.000000   0.000000   0.000000   0.000000   0.000000
    20  O    0.000000   0.000000   0.000000   0.000000   0.000000   0.000000
    21  O    0.000000   0.000000   0.000000   0.000000   0.000000   0.000000
    22  O    0.000000   0.000000   0.000000   0.000000   0.000000   0.000000
    23  O    0.000000   0.000000   0.000000   0.000000   0.000000   0.000000
    24  C    0.000000   0.000000   0.000000   0.000000   0.000000   0.000000
    25  H    0.000000   0.000000   0.000000   0.000000   0.000000   0.000000
    26  H    0.000000   0.000000   0.000000   0.000000   0.000000   0.000000
    27  H    0.000000   0.000000   0.000000   0.000000   0.000000   0.000000
    28  C    0.000000   0.000000   0.000000   0.000000   0.000000   0.000000
    29  H    0.000000   0.000000   0.000000   0.000000   0.000000   0.000000
    30  H    0.000000   0.000000   0.000000   0.000000   0.000000   0.000000
    31  H    0.000000   0.000000   0.000000   0.000000   0.000000   0.000000
              19         20         21         22         23         24
     1  C    0.000000   0.000000   0.000000   0.000000   0.000000   0.000000
     2  C    0.000000   0.000000   0.000000   0.000000   0.000000   0.000000
     3  C    0.000000   0.000000   0.000000   0.000000   0.000000   0.000000
     4  C    0.000000   0.000000   0.000000   0.000000   0.000000   0.000000
     5  H    0.000000   0.000000   0.000000   0.000000   0.000000   0.000000
     6  H    0.000000   0.000000   0.000000   0.000000   0.000000   0.000000
     7  C    0.000000   0.000000   0.000000   0.000000   0.000000   0.000000
     8  H    0.000000   0.000000   0.000000   0.000000   0.000000   0.000000
     9  H    0.000000   0.000000   0.000000   0.000000   0.000000   0.000000
    10  C    0.000000   0.000000   0.000000   0.000000   0.000000   0.000000
    11  H    0.000000   0.000000   0.000000   0.000000   0.000000   0.000000
    12  C    0.000000   0.000000   0.000000   0.000000   0.000000   0.000000
    13  H    0.000000   0.000000   0.000000   0.000000   0.000000   0.000000
    14  H    0.000000   0.000000   0.000000   0.000000   0.000000   0.000000
    15  H    0.000000   0.000000   0.000000   0.000000   0.000000   0.000000
    16  N    0.000000   0.000000   0.000000   0.000000   0.000000   0.000000
    17  N    0.000000   0.000000   0.000000   0.000000   0.000000   0.000000
    18  C    0.000000   0.000000   0.000000   0.000000   0.000000   0.000000
    19  C   -0.022229   0.000000   0.000000   0.000000   0.000000   0.000000
    20  O    0.000000   0.044110   0.000000   0.000000   0.000000   0.000000
    21  O    0.000000   0.000000   0.003078   0.000000   0.000000   0.000000
    22  O    0.000000   0.000000   0.000000   0.001200   0.000000   0.000000
    23  O    0.000000   0.000000   0.000000   0.000000   0.031348   0.000000
    24  C    0.000000   0.000000   0.000000   0.000000   0.000000   0.000805
    25  H    0.000000   0.000000   0.000000   0.000000   0.000000   0.000000
    26  H    0.000000   0.000000   0.000000   0.000000   0.000000   0.000000
    27  H    0.000000   0.000000   0.000000   0.000000   0.000000   0.000000
    28  C    0.000000   0.000000   0.000000   0.000000   0.000000   0.000000
    29  H    0.000000   0.000000   0.000000   0.000000   0.000000   0.000000
    30  H    0.000000   0.000000   0.000000   0.000000   0.000000   0.000000
    31  H    0.000000   0.000000   0.000000   0.000000   0.000000   0.000000
              25         26         27         28         29         30
     1  C    0.000000   0.000000   0.000000   0.000000   0.000000   0.000000
     2  C    0.000000   0.000000   0.000000   0.000000   0.000000   0.000000
     3  C    0.000000   0.000000   0.000000   0.000000   0.000000   0.000000
     4  C    0.000000   0.000000   0.000000   0.000000   0.000000   0.000000
     5  H    0.000000   0.000000   0.000000   0.000000   0.000000   0.000000
     6  H    0.000000   0.000000   0.000000   0.000000   0.000000   0.000000
     7  C    0.000000   0.000000   0.000000   0.000000   0.000000   0.000000
     8  H    0.000000   0.000000   0.000000   0.000000   0.000000   0.000000
     9  H    0.000000   0.000000   0.000000   0.000000   0.000000   0.000000
    10  C    0.000000   0.000000   0.000000   0.000000   0.000000   0.000000
    11  H    0.000000   0.000000   0.000000   0.000000   0.000000   0.000000
    12  C    0.000000   0.000000   0.000000   0.000000   0.000000   0.000000
    13  H    0.000000   0.000000   0.000000   0.000000   0.000000   0.000000
    14  H    0.000000   0.000000   0.000000   0.000000   0.000000   0.000000
    15  H    0.000000   0.000000   0.000000   0.000000   0.000000   0.000000
    16  N    0.000000   0.000000   0.000000   0.000000   0.000000   0.000000
    17  N    0.000000   0.000000   0.000000   0.000000   0.000000   0.000000
    18  C    0.000000   0.000000   0.000000   0.000000   0.000000   0.000000
    19  C    0.000000   0.000000   0.000000   0.000000   0.000000   0.000000
    20  O    0.000000   0.000000   0.000000   0.000000   0.000000   0.000000
    21  O    0.000000   0.000000   0.000000   0.000000   0.000000   0.000000
    22  O    0.000000   0.000000   0.000000   0.000000   0.000000   0.000000
    23  O    0.000000   0.000000   0.000000   0.000000   0.000000   0.000000
    24  C    0.000000   0.000000   0.000000   0.000000   0.000000   0.000000
    25  H    0.001368   0.000000   0.000000   0.000000   0.000000   0.000000
    26  H    0.000000   0.000376   0.000000   0.000000   0.000000   0.000000
    27  H    0.000000   0.000000  -0.000059   0.000000   0.000000   0.000000
    28  C    0.000000   0.000000   0.000000  -0.002201   0.000000   0.000000
    29  H    0.000000   0.000000   0.000000   0.000000  -0.000185   0.000000
    30  H    0.000000   0.000000   0.000000   0.000000   0.000000   0.000221
    31  H    0.000000   0.000000   0.000000   0.000000   0.000000   0.000000
              31
     1  C    0.000000
     2  C    0.000000
     3  C    0.000000
     4  C    0.000000
     5  H    0.000000
     6  H    0.000000
     7  C    0.000000
     8  H    0.000000
     9  H    0.000000
    10  C    0.000000
    11  H    0.000000
    12  C    0.000000
    13  H    0.000000
    14  H    0.000000
    15  H    0.000000
    16  N    0.000000
    17  N    0.000000
    18  C    0.000000
    19  C    0.000000
    20  O    0.000000
    21  O    0.000000
    22  O    0.000000
    23  O    0.000000
    24  C    0.000000
    25  H    0.000000
    26  H    0.000000
    27  H    0.000000
    28  C    0.000000
    29  H    0.000000
    30  H    0.000000
    31  H    0.000314
 Mulliken charges and spin densities:
               1          2
     1  C    0.024984  -0.002638
     2  C   -0.125732  -0.038287
     3  C   -0.115173   0.075006
     4  C   -0.242235   0.039756
     5  H    0.169679   0.001083
     6  H    0.181462  -0.001350
     7  C   -0.276293   0.034387
     8  H    0.156675  -0.000787
     9  H    0.165522  -0.000960
    10  C   -0.162137   1.010102
    11  H    0.159153  -0.026856
    12  C   -0.167326  -0.089436
    13  H    0.167103   0.002708
    14  H    0.153913   0.001420
    15  H    0.167549  -0.001754
    16  N   -0.318547   0.625058
    17  N   -0.099643   0.342599
    18  C    0.696160  -0.028197
    19  C    0.689546  -0.022229
    20  O   -0.480979   0.044110
    21  O   -0.531412   0.003078
    22  O   -0.397383   0.001200
    23  O   -0.415880   0.031348
    24  C   -0.191058   0.000805
    25  H    0.169415   0.001368
    26  H    0.158264   0.000376
    27  H    0.151331  -0.000059
    28  C   -0.182843  -0.002201
    29  H    0.175543  -0.000185
    30  H    0.160080   0.000221
    31  H    0.160260   0.000314
 Sum of Mulliken charges =   0.00000   2.00000
 Mulliken charges and spin densities with hydrogens summed into heavy atoms:
               1          2
     1  C    0.194663  -0.001555
     2  C    0.028181  -0.036867
     3  C    0.052376   0.073252
     4  C   -0.060773   0.038406
     7  C    0.045905   0.032640
    10  C   -0.002984   0.983246
    12  C   -0.000222  -0.086728
    16  N   -0.318547   0.625058
    17  N   -0.099643   0.342599
    18  C    0.696160  -0.028197
    19  C    0.689546  -0.022229
    20  O   -0.480979   0.044110
    21  O   -0.531412   0.003078
    22  O   -0.397383   0.001200
    23  O   -0.415880   0.031348
    24  C    0.287952   0.002490
    28  C    0.313040  -0.001851
 Charge=              0.0000 electrons
 Dipole moment (field-independent basis, Debye):
    X=              1.6781    Y=              4.5088    Z=             -4.5365  Tot=              6.6125
 N-N= 7.458908045304D+02 E-N=-1.368100099002D+03  KE=-5.997449904951D+01
 D1PCM: C-PCM CHGder 1st derivatives, ID1Alg=3 FixD1E=F DoIter=F DoCFld=F I1PDM=0.
 Calling FoFJK, ICntrl=      2127 FMM=F ISym2X=0 I1Cent= 0 IOpClX= 1 NMat=1 NMatS=1 NMatT=0.
 ***** Axes restored to original set *****
 -------------------------------------------------------------------
 Center     Atomic                   Forces (Hartrees/Bohr)
 Number     Number              X              Y              Z
 -------------------------------------------------------------------
      1        6           0.004452233   -0.005785187   -0.009827607
      2        6           0.024610066    0.005471632    0.007312136
      3        6          -0.024913205    0.001777418    0.019917265
      4        6          -0.011183877   -0.023631116   -0.024687226
      5        1           0.007050593   -0.000099401   -0.013575391
      6        1           0.003718689   -0.004509466   -0.000222053
      7        6          -0.002189469    0.004257899    0.013337465
      8        1          -0.000880765   -0.000994710    0.003588897
      9        1           0.000439597    0.002505198    0.003948753
     10        6          -0.002526470    0.024152830    0.013864567
     11        1          -0.000474031   -0.013580260   -0.007636563
     12        6          -0.009409434    0.026799164   -0.020675164
     13        1           0.005008679    0.003570937    0.000513707
     14        1           0.000345709    0.001097714    0.001569148
     15        1           0.003746347    0.000708184    0.004857238
     16        7           0.028303801   -0.006730111    0.000480524
     17        7          -0.017915497    0.006455153   -0.000223968
     18        6          -0.014651640    0.005916676    0.023493303
     19        6          -0.001476812   -0.018944867    0.016679228
     20        8           0.011879809   -0.025871711    0.012347567
     21        8          -0.019776683    0.001456826    0.016546465
     22        8           0.002882885    0.035408067   -0.022282699
     23        8           0.011649061   -0.007116344   -0.031371458
     24        6          -0.028397812   -0.003653088   -0.006387008
     25        1           0.004468937   -0.000303743   -0.000827492
     26        1          -0.000077478   -0.001902070    0.000041494
     27        1           0.000788614    0.000412155   -0.000630029
     28        6           0.027239006   -0.010506459    0.001793416
     29        1          -0.003692843    0.003549695   -0.001732741
     30        1           0.000598429    0.001013216    0.001533661
     31        1           0.000383560   -0.000924231   -0.001745433
 -------------------------------------------------------------------
 Cartesian Forces:  Max     0.035408067 RMS     0.012693785

 GradGradGradGradGradGradGradGradGradGradGradGradGradGradGradGradGradGrad
 Berny optimization.
 FormGI is forming the generalized inverse of G from B-inverse, IUseBI=4.
 Internal  Forces:  Max     0.045465855 RMS     0.009832311
 Search for a local minimum.
 Step number   1 out of a maximum of  186
 All quantities printed in internal units (Hartrees-Bohrs-Radians)
 Mixed Optimization -- RFO/linear search
 Second derivative matrix not updated -- first step.
 ITU=  0
     Eigenvalues ---    0.00610   0.01061   0.01174   0.01358   0.01365
     Eigenvalues ---    0.01368   0.01409   0.01432   0.01699   0.01812
     Eigenvalues ---    0.01829   0.01836   0.02113   0.02255   0.02393
     Eigenvalues ---    0.02477   0.02617   0.02869   0.03477   0.04162
     Eigenvalues ---    0.04603   0.05247   0.05506   0.05814   0.05884
     Eigenvalues ---    0.05968   0.06878   0.08652   0.08859   0.09718
     Eigenvalues ---    0.10274   0.10289   0.10633   0.10660   0.11280
     Eigenvalues ---    0.11442   0.11987   0.14799   0.16000   0.16000
     Eigenvalues ---    0.16000   0.16000   0.16000   0.16000   0.16571
     Eigenvalues ---    0.19581   0.20982   0.23985   0.24345   0.24530
     Eigenvalues ---    0.24922   0.24998   0.25000   0.25000   0.25000
     Eigenvalues ---    0.25000   0.25000   0.25300   0.27214   0.27764
     Eigenvalues ---    0.29091   0.30362   0.32716   0.33650   0.33717
     Eigenvalues ---    0.33784   0.33950   0.33970   0.33970   0.34275
     Eigenvalues ---    0.34343   0.34349   0.34368   0.34422   0.34911
     Eigenvalues ---    0.34971   0.35031   0.35237   0.41794   0.42251
     Eigenvalues ---    0.42511   0.47388   0.57056   0.59497   0.62683
     Eigenvalues ---    1.03562   1.07617
 RFO step:  Lambda=-4.09252421D-02 EMin= 6.10180632D-03
 Linear search not attempted -- first point.
 Maximum step size (   0.300) exceeded in Quadratic search.
    -- Step size scaled by   0.949
 Iteration  1 RMS(Cart)=  0.12640703 RMS(Int)=  0.00287681
 Iteration  2 RMS(Cart)=  0.00875802 RMS(Int)=  0.00015726
 Iteration  3 RMS(Cart)=  0.00003895 RMS(Int)=  0.00015646
 Iteration  4 RMS(Cart)=  0.00000000 RMS(Int)=  0.00015646
 Variable       Old X    -DE/DX   Delta X   Delta X   Delta X     New X
                                 (Linear)    (Quad)   (Total)
    R1        2.94448   0.02612   0.00000   0.08047   0.08058   3.02506
    R2        2.87085   0.01819   0.00000   0.05030   0.05038   2.92123
    R3        2.06868   0.01519   0.00000   0.03757   0.03757   2.10625
    R4        2.80013   0.02302   0.00000   0.05677   0.05677   2.85691
    R5        2.93265   0.01588   0.00000   0.04561   0.04547   2.97813
    R6        2.84578   0.01067   0.00000   0.02753   0.02765   2.87343
    R7        2.06745   0.00087   0.00000   0.00216   0.00216   2.06961
    R8        2.84049   0.02649   0.00000   0.07370   0.07378   2.91427
    R9        2.88224   0.01473   0.00000   0.04262   0.04245   2.92469
   R10        2.88724   0.01776   0.00000   0.04613   0.04596   2.93320
   R11        2.05820  -0.00230   0.00000  -0.00560  -0.00560   2.05260
   R12        2.05291   0.00016   0.00000   0.00038   0.00038   2.05329
   R13        2.87781   0.02210   0.00000   0.06201   0.06204   2.93985
   R14        2.07695   0.00144   0.00000   0.00361   0.00361   2.08057
   R15        2.07926   0.00006   0.00000   0.00016   0.00016   2.07942
   R16        2.05722  -0.01369   0.00000  -0.03325  -0.03325   2.02397
   R17        2.79054   0.00792   0.00000   0.01836   0.01841   2.80895
   R18        2.05625  -0.00175   0.00000  -0.00423  -0.00423   2.05202
   R19        2.48878   0.01796   0.00000   0.02552   0.02552   2.51430
   R20        2.62597   0.04485   0.00000   0.08264   0.08264   2.70861
   R21        2.68278   0.04133   0.00000   0.08414   0.08414   2.76692
   R22        2.27245   0.02577   0.00000   0.02270   0.02270   2.29516
   R23        2.53349   0.04238   0.00000   0.06576   0.06576   2.59925
   R24        2.25735   0.03081   0.00000   0.02617   0.02617   2.28351
   R25        2.51341   0.04547   0.00000   0.06783   0.06783   2.58123
   R26        2.69186   0.02547   0.00000   0.05265   0.05265   2.74451
   R27        2.68605   0.02498   0.00000   0.05113   0.05113   2.73718
   R28        2.06756   0.00092   0.00000   0.00227   0.00227   2.06983
   R29        2.07415   0.00136   0.00000   0.00339   0.00339   2.07754
   R30        2.07810  -0.00010   0.00000  -0.00025  -0.00025   2.07786
   R31        2.06624   0.00169   0.00000   0.00415   0.00415   2.07040
   R32        2.07380   0.00161   0.00000   0.00400   0.00400   2.07781
   R33        2.07381   0.00163   0.00000   0.00406   0.00406   2.07787
    A1        1.69365  -0.00306   0.00000  -0.00804  -0.00814   1.68551
    A2        1.94291   0.00113   0.00000   0.00352   0.00350   1.94641
    A3        1.95390   0.00352   0.00000   0.02595   0.02593   1.97983
    A4        1.96037  -0.00022   0.00000  -0.00712  -0.00706   1.95331
    A5        2.03930   0.00226   0.00000   0.01110   0.01088   2.05019
    A6        1.87104  -0.00323   0.00000  -0.02203  -0.02199   1.84905
    A7        1.77233   0.00364   0.00000   0.02024   0.02016   1.79249
    A8        1.73993   0.00004   0.00000  -0.00073  -0.00054   1.73938
    A9        2.01471  -0.00098   0.00000   0.00424   0.00411   2.01882
   A10        1.77047  -0.00368   0.00000  -0.02880  -0.02864   1.74182
   A11        2.05147  -0.00017   0.00000   0.00338   0.00304   2.05451
   A12        2.06386   0.00129   0.00000   0.00098   0.00083   2.06469
   A13        1.86872   0.00092   0.00000   0.00680   0.00670   1.87542
   A14        2.11690   0.00254   0.00000   0.01761   0.01777   2.13467
   A15        1.85246  -0.00029   0.00000  -0.00277  -0.00284   1.84961
   A16        2.15154  -0.00343   0.00000  -0.02263  -0.02268   2.12886
   A17        2.13134   0.00241   0.00000   0.01464   0.01451   2.14585
   A18        1.87719   0.00019   0.00000   0.00558   0.00563   1.88282
   A19        2.14584  -0.00503   0.00000  -0.02516  -0.02510   2.12074
   A20        1.84042   0.00079   0.00000  -0.00047  -0.00052   1.83991
   A21        2.15367   0.00498   0.00000   0.02189   0.02177   2.17544
   A22        2.09796   0.00353   0.00000   0.01719   0.01710   2.11506
   A23        1.69083  -0.00009   0.00000   0.00065   0.00054   1.69137
   A24        1.94456   0.00158   0.00000   0.01171   0.01177   1.95633
   A25        1.98510   0.00003   0.00000   0.00241   0.00237   1.98747
   A26        1.96414  -0.00008   0.00000   0.00281   0.00273   1.96687
   A27        1.96705   0.00126   0.00000   0.00745   0.00754   1.97458
   A28        1.90595  -0.00231   0.00000  -0.02134  -0.02133   1.88461
   A29        2.20083  -0.00160   0.00000   0.00417   0.00343   2.20426
   A30        1.74556   0.00508   0.00000   0.02094   0.02055   1.76611
   A31        2.20530  -0.00141   0.00000   0.00564   0.00490   2.21020
   A32        1.85540  -0.00355   0.00000  -0.01923  -0.01917   1.83622
   A33        2.12088   0.00360   0.00000   0.02359   0.02327   2.14415
   A34        1.85460  -0.00124   0.00000   0.00004   0.00005   1.85464
   A35        2.10323   0.00218   0.00000   0.01634   0.01626   2.11949
   A36        2.17975  -0.00155   0.00000  -0.01545  -0.01542   2.16433
   A37        2.09931   0.02915   0.00000   0.09504   0.09504   2.19435
   A38        2.19020   0.00974   0.00000   0.03520   0.03515   2.22535
   A39        2.06623  -0.00647   0.00000  -0.01919  -0.01940   2.04684
   A40        1.98005  -0.00271   0.00000  -0.00670  -0.00690   1.97315
[...]
 62,0.00002537,0.00000041,-0.00001449,-0.00002079,0.00000532,0.00001641
 ,0.00005886,-0.00005259,0.00002493,-0.00001225,0.00003753,-0.00002193,
 -0.00000459,-0.00000616,0.00000175,-0.00003170,-0.00000035,0.00048534,
 -0.00017025,0.00033354,0.00043092,0.00000621,-0.00010422,-0.00196299,-
 0.00070583,-0.00293267,-0.00074956,0.00024717,0.00002494,0.00016837,-0
 .00013746,0.00001621,-0.00002631,0.00022065,0.00102285,0.00024229,0.00
 003566,-0.00005591,-0.01708598,-0.00410405,-0.01232346,-0.01095802,-0.
 02888224,-0.21161562,0.02422904,0.03696325,0.25427616,0.00004000,0.000
 04465,0.00010283,0.00000210,0.00001823,-0.00001953,0.00000265,0.000008
 75,-0.00000059,0.00003858,-0.00000175,0.00002143,-0.00000130,-0.000011
 16,0.00001499,-0.00007006,-0.00001927,-0.00000047,0.00000440,0.0000211
 5,0.00001392,0.00000153,-0.00000747,-0.00000690,-0.00000317,-0.0000101
 6,-0.00001106,0.00000225,0.00000947,0.00000502,-0.00000447,-0.00000783
 ,-0.00000079,0.00000082,0.00000824,-0.00000717,0.00000440,-0.00000893,
 0.00000141,-0.00000821,-0.00000228,-0.00000376,0.00000163,-0.00002194,
 -0.00001206,0.00022337,0.00067640,0.00000198,0.00052290,-0.00006276,-0
 .00003921,-0.00204263,-0.00293306,0.00073676,-0.00027959,0.00015043,0.
 00000409,0.00005803,-0.00005527,0.00001234,-0.00010048,0.00006049,0.00
 061242,0.00010500,0.00000724,-0.00001586,-0.03249092,-0.02545263,0.009
 89438,-0.04633950,-0.03738513,0.02460483,0.00392264,-0.00091000,0.0022
 6920,0.07087958,0.00007114,-0.00005113,0.00005004,0.00001451,0.0000127
 6,-0.00002026,0.00001273,-0.00002567,-0.00001210,0.00000913,0.00011183
 ,0.00000017,-0.00002211,0.00000397,0.00003126,-0.00003379,-0.00004571,
 0.00003849,0.00000935,0.00004013,0.00003445,0.00000013,-0.00001301,-0.
 00001454,-0.00000772,-0.00001396,-0.00002671,-0.00000830,0.00002078,0.
 00000176,-0.00001114,-0.00001968,0.00000148,0.00002510,0.00004072,-0.0
 0003667,0.00001238,-0.00001081,0.00001783,-0.00002127,-0.00000199,-0.0
 0000901,-0.00000309,-0.00002599,-0.00000557,0.00052251,-0.00003857,0.0
 0032456,0.00039548,-0.00006030,-0.00003330,-0.00273936,-0.00054349,-0.
 00233989,-0.00062640,0.00031117,-0.00003994,0.00014944,-0.00018110,0.0
 0004418,0.00029460,-0.00016209,0.00060852,0.00019088,-0.00000735,-0.00
 002124,-0.01178165,-0.00430985,0.00393526,-0.04396133,-0.14951634,0.07
 634551,-0.00011397,0.00260562,0.00386164,0.05902870,0.17493089,-0.0000
 1089,0.00004175,0.00000774,-0.00000521,0.00000302,0.00000300,0.0000138
 5,0.00003430,-0.00000217,-0.00000326,-0.00008073,-0.00001777,0.0000068
 3,-0.00000352,0.00000205,0.00001100,0.00002877,0.00001415,0.00000496,-
 0.00000540,-0.00002825,-0.00000354,0.00000136,0.00000820,-0.00000477,-
 0.00000405,0.00001696,0.00000711,-0.00000852,-0.00000729,0.00000065,0.
 00000614,0.00000297,-0.00001468,-0.00000500,0.00001716,-0.00000093,0.0
 0000074,-0.00000389,0.00000534,-0.00000078,0.00000297,-0.00001644,-0.0
 0000720,0.00001250,-0.00004490,0.00029729,-0.00044178,0.00007555,-0.00
 004694,-0.00000600,-0.00202543,-0.00112298,0.00388949,0.00014269,-0.00
 002379,0.00005286,-0.00003522,0.00003771,-0.00003101,0.00124935,0.0004
 7258,-0.00067353,-0.00002629,-0.00000651,-0.00000659,0.00000724,-0.001
 48961,0.00174690,0.03065763,0.07860514,-0.08713179,0.00573512,0.017607
 05,-0.01828412,-0.03493686,-0.09277856,0.09560554,0.00008983,-0.000045
 58,0.00005990,0.00000779,0.00001250,-0.00002190,-0.00000639,-0.0000206
 9,-0.00000309,0.00001432,0.00016108,-0.00000829,-0.00001141,0.00001153
 ,0.00001988,-0.00031612,-0.00020638,0.00014163,0.00000225,0.00004646,0
 .00003465,0.00000785,-0.00001376,-0.00001121,-0.00000037,-0.00001532,-
 0.00001901,-0.00001513,0.00002628,0.00000248,-0.00000636,-0.00001691,-
 0.00000058,0.00002609,0.00004541,-0.00004823,0.00002594,-0.00001102,0.
 00002037,-0.00001292,-0.00000374,-0.00000561,0.00003904,-0.00006573,-0
 .00003917,0.00094349,-0.00082494,0.00052142,-0.00003852,0.00008626,-0.
 00008388,-0.00305798,0.00254877,-0.00087640,-0.00035343,0.00005760,0.0
 0002706,0.00009235,-0.00004837,0.00000844,-0.00004732,0.00016962,0.000
 70426,0.00011831,0.00002489,-0.00002185,-0.03886183,0.02013996,0.00342
 136,-0.06884899,0.06590030,0.02129342,0.00329935,0.00258679,0.00295963
 ,0.00555593,-0.00135947,-0.00079926,0.10138491,-0.00005855,0.00014465,
 -0.00007116,0.00003766,-0.00002085,0.00005018,0.00008136,0.00005474,0.
 00000219,0.00008178,-0.00005431,0.00001930,0.00001580,-0.00001527,-0.0
 0000241,-0.00018993,-0.00002399,0.00005832,0.00003110,-0.00003881,-0.0
 0000654,-0.00000343,0.00000057,-0.00000125,-0.00000579,0.00003448,0.00
 000517,-0.00001378,-0.00001663,-0.00003970,-0.00000179,-0.00000196,0.0
 0001134,0.00003811,0.00002204,0.00003799,-0.00001694,-0.00000829,-0.00
 000979,-0.00000105,0.00000349,-0.00000472,-0.00011397,-0.00009635,-0.0
 0006227,-0.00030524,-0.00015105,-0.00034612,-0.00035005,0.00001012,0.0
 0002688,0.00121527,0.00171728,0.00291600,0.00046133,-0.00008757,0.0000
 2030,-0.00008473,0.00003488,-0.00001400,0.00017059,-0.00054243,-0.0004
 3504,-0.00014858,-0.00005015,0.00002687,0.00451027,0.00179883,-0.00159
 433,0.07365074,-0.16455925,-0.04321096,0.00333126,-0.00460433,-0.00736
 417,0.00683871,-0.02308478,-0.00155071,-0.08919993,0.18955674,0.000025
 30,-0.00000425,-0.00000888,-0.00000447,0.00000492,-0.00000441,0.000047
 64,0.00008628,-0.00001426,-0.00003192,-0.00010982,-0.00007979,0.000000
 68,0.00000532,0.00000974,0.00020189,0.00018319,0.00002426,0.00001978,0
 .00000477,-0.00003280,-0.00000694,-0.00000313,0.00000584,-0.00001018,-
 0.00000864,0.00001078,0.00000789,-0.00000539,-0.00001282,-0.00000361,0
 .00000224,0.00000543,-0.00002235,0.00002577,0.00001414,0.00000910,-0.0
 0000286,0.00000313,0.00000095,-0.00000230,-0.00000041,-0.00006465,-0.0
 0007534,0.00000535,0.00036118,-0.00026458,-0.00013489,-0.00006021,-0.0
 0001573,-0.00002722,-0.00292305,0.00140696,0.00249354,-0.00000996,-0.0
 0000832,0.00005752,0.00000355,0.00001335,-0.00002127,0.00137063,-0.000
 26166,-0.00041252,0.00001431,0.00000392,-0.00001500,-0.00283584,0.0020
 2352,0.00199972,0.02519879,-0.04429896,-0.04959133,0.00921499,-0.02028
 365,-0.01043276,-0.00323146,0.01005370,0.00524736,-0.02727142,0.051526
 67,0.05090826,-0.00046855,0.00039275,-0.00019203,-0.00004307,0.0000331
 9,0.00010154,0.00007957,0.00007732,0.00002255,0.00016970,-0.00008145,0
 .00000622,-0.00031407,0.00010676,-0.00024554,0.00000258,-0.00004989,-0
 .00008917,0.00002265,-0.00012851,-0.00013924,0.00001085,0.00005742,0.0
 0005402,-0.00000408,0.00002270,0.00008405,-0.00002714,-0.00010084,-0.0
 0005331,0.00006146,0.00007590,0.00001569,0.00001927,-0.00003473,0.0001
 2453,-0.00003820,0.00004565,-0.00006236,0.00007428,0.00011608,0.000103
 55,-0.00006725,-0.00000344,0.00002079,0.00097787,-0.00052569,0.0003370
 2,0.00210070,0.00069440,-0.00030228,-0.00153857,-0.00009718,-0.0000939
 2,-0.04824987,-0.03529270,0.01748808,-0.00329801,0.00416235,-0.0013051
 4,0.00057344,0.00006065,-0.00025164,-0.18923398,0.05169827,-0.00564968
 ,0.00052798,0.00010969,0.00017164,-0.00014555,0.00000722,0.00012369,0.
 00004386,-0.00001063,-0.00005106,-0.00002163,-0.00004234,0.00000708,-0
 .00002642,0.00002416,-0.00000224,0.37482279,-0.00009462,-0.00104602,0.
 00043035,0.00008322,0.00002965,-0.00011170,0.00005613,-0.00011079,-0.0
 0001742,0.00005140,0.00039947,-0.00011418,-0.00035011,0.00002856,0.000
 06333,0.00000791,-0.00005071,0.00004626,0.00003537,0.00012957,0.000049
 82,-0.00000424,-0.00001848,-0.00001369,0.00000726,-0.00007921,-0.00003
 627,-0.00000835,0.00006162,-0.00001270,-0.00006053,-0.00002633,0.00001
 879,0.00001885,0.00009118,-0.00010013,0.00001627,0.00000277,0.00004218
 ,-0.00020000,0.00004363,0.00006928,0.00001028,-0.00000827,0.00000287,-
 0.00275484,0.00138701,-0.00083476,-0.00530652,-0.00435869,0.00356289,0
 .00150150,-0.00032132,0.00037696,-0.02687583,0.00861945,-0.00347689,-0
 .00308290,-0.00329433,0.00180591,-0.00086982,0.00006538,0.00032142,0.0
 6279831,-0.06669294,0.00731281,-0.00061958,-0.00005059,-0.00014190,0.0
 0015612,0.00001635,-0.00014845,-0.00004967,-0.00000214,0.00005077,0.00
 002347,0.00003675,-0.00000443,0.00002493,-0.00004093,0.00000412,0.0002
 7850,0.41971294,-0.00017621,0.00054295,0.00060433,0.00003853,-0.000034
 88,-0.00011356,-0.00003218,0.00001887,-0.00000463,-0.00004418,-0.00017
 581,0.00013533,0.00032434,-0.00013830,-0.00002713,0.00000121,0.0000159
 4,-0.00002631,0.00000151,-0.00005579,0.00001208,-0.00000336,0.00000623
 ,-0.00000122,-0.00001284,0.00004342,0.00001323,0.00000549,0.00002944,0
 .00003750,0.00001717,0.00000230,-0.00001351,0.00002900,-0.00003656,0.0
 0002676,-0.00000498,0.00000074,-0.00001430,0.00001145,0.00001676,-0.00
 003223,-0.00000088,0.00001088,0.00000305,0.00089988,-0.00031927,0.0013
 1895,0.00248831,0.00221484,-0.00032293,-0.00070512,0.00017408,-0.00028
 918,0.01386430,-0.00231541,-0.00615533,0.00156923,0.00100436,-0.000156
 23,0.00031601,-0.00000232,-0.00007426,-0.00985366,0.00842570,-0.035154
 50,0.00029398,0.00002252,0.00017018,-0.00006754,-0.00001357,0.00008907
 ,0.00002684,-0.00000109,-0.00002775,-0.00001272,-0.00001716,-0.0000036
 2,-0.00000934,0.00001570,-0.00000565,0.00140928,-0.01046809,0.39641553
 ,0.00004034,-0.00021686,-0.00001779,0.00003429,0.00000273,-0.00001192,
 0.00001022,-0.00001686,-0.00000612,0.00000435,0.00005482,-0.00001859,-
 0.00012027,0.00003260,0.00004206,-0.00000297,-0.00000563,0.00001276,0.
 00001213,0.00001976,0.00000888,-0.00000224,-0.00000038,-0.00000146,-0.
 00000019,-0.00001326,-0.00000920,0.00000095,-0.00000041,-0.00000789,-0
 .00000890,0.00000378,0.00000458,0.00000786,0.00001244,-0.00001378,0.00
 000146,0.00000242,0.00000622,-0.00004592,0.00000622,0.00000299,0.00000
 013,-0.00000109,0.00000123,-0.00068247,0.00031792,-0.00033636,-0.00098
 359,-0.00155827,0.00100793,0.00028188,-0.00009758,0.00013234,-0.007066
 07,0.00389326,-0.00091804,0.00110911,-0.00005988,-0.00006989,-0.000184
 88,0.00001674,0.00005996,-0.03115775,-0.02820793,0.01393952,-0.0001212
 6,-0.00001354,-0.00003752,0.00002762,0.00000322,-0.00003549,-0.0000116
 0,0.00000039,0.00001016,0.00000436,0.00000804,0.00000016,0.00000398,-0
 .00000696,0.00000153,-0.05171719,-0.04954449,0.02082038,0.08048364,0.0
 0003112,0.00032379,-0.00005430,-0.00003395,-0.00001017,0.00004029,0.00
 000458,0.00005178,0.00001357,0.00004993,-0.00011662,-0.00000261,0.0000
 5525,0.00001222,-0.00007352,0.00000412,0.00000360,-0.00002482,-0.00000
 516,-0.00007139,-0.00003853,0.00000627,0.00002138,0.00001215,-0.000003
 88,0.00002922,0.00002222,-0.00001397,-0.00003808,0.00000415,0.00004751
 ,0.00002973,-0.00000626,-0.00001667,-0.00003742,0.00005633,-0.00001060
 ,0.00000987,-0.00002384,0.00006733,0.00004183,0.00001190,-0.00001273,-
 0.00000032,0.00000207,0.00058594,-0.00034527,0.00022537,0.00100250,0.0
 0052396,-0.00044940,-0.00067007,0.00004108,-0.00005502,-0.00109441,-0.
 00316942,0.00152488,0.00002622,0.00076506,-0.00033658,0.00028802,-0.00
 000232,-0.00012123,-0.01030885,0.00335324,0.00076185,0.00024546,0.0000
 2065,0.00006635,-0.00006493,-0.00000629,0.00005564,0.00001892,0.000001
 06,-0.00002071,-0.00000967,-0.00001420,0.00000287,-0.00001122,0.000016
 48,-0.00000101,-0.05660795,-0.17137117,0.05824075,0.07286047,0.1973690
 9,0.00000318,-0.00007636,0.00002141,-0.00003210,0.00002769,-0.00002337
 ,-0.00000919,-0.00000917,-0.00000230,-0.00002300,0.00002287,-0.0000217
 4,-0.00005183,-0.00000473,0.00007862,-0.00000079,0.00000599,0.00002165
 ,-0.00000795,0.00001774,-0.00000775,0.00000424,-0.00000804,-0.00000091
 ,0.00000744,-0.00000703,-0.00000210,0.00001134,0.00000459,-0.00001397,
 -0.00001537,-0.00000738,0.00001225,-0.00000950,0.00001373,-0.00002074,
 0.00000444,-0.00000748,0.00001402,0.00003378,-0.00002547,0.00001344,0.
 00000717,-0.00000055,-0.00000313,-0.00017439,0.00008964,-0.00006172,-0
 .00028687,-0.00008103,0.00004862,0.00023919,0.00002202,0.00008880,0.00
 109241,0.00101027,-0.00009007,-0.00012021,-0.00030982,0.00008093,-0.00
 008901,-0.00001073,0.00000705,0.00710123,0.00237211,0.00125405,-0.0000
 9415,-0.00001737,-0.00005721,0.00002655,-0.00000097,-0.00002885,-0.000
 00938,0.00000063,0.00001239,0.00000314,0.00000590,0.00000140,0.0000039
 8,-0.00000461,0.00000301,0.02350451,0.05767910,-0.05832512,-0.03253846
 ,-0.07039778,0.06249694,0.00003658,0.00019777,0.00004491,0.00001628,-0
 .00001576,-0.00001148,-0.00001144,0.00001390,-0.00000097,-0.00002004,-
 0.00009028,0.00004463,0.00006602,-0.00001980,0.00001647,-0.00000404,0.
 00001047,-0.00000489,0.00000129,-0.00002505,-0.00000583,-0.00000177,0.
 00000410,0.00000420,-0.00000498,0.00001734,0.00000749,0.00000756,-0.00
 000434,0.00000351,0.00000232,0.00000469,0.00000035,0.00001063,-0.00001
 611,0.00001514,-0.00000385,0.00000020,-0.00000550,0.00000986,-0.000005
 82,-0.00001348,-0.00000358,0.00000389,0.00000174,0.00028880,-0.0001378
 3,0.00025620,0.00086468,0.00025795,0.00000238,-0.00031015,0.00002804,-
 0.00002914,-0.00373677,0.00061606,-0.00345476,0.00051875,0.00028758,-0
 .00003900,0.00013792,0.00000252,-0.00005898,-0.03374532,0.00848852,-0.
 02406506,0.00012197,0.00000967,0.00003703,-0.00003121,-0.00000357,0.00
 002719,0.00000890,-0.00000038,-0.00000897,-0.00000541,-0.00000771,0.00
 000157,-0.00000506,0.00000704,-0.00000013,-0.04800344,0.00732978,-0.04
 654355,0.00542575,-0.00122795,0.00434080,0.07347450,0.00003644,0.00007
 658,-0.00002114,-0.00003046,0.00000940,0.00000508,-0.00001040,0.000011
 58,0.00000475,-0.00000292,-0.00004380,-0.00000191,0.00000635,0.0000145
 5,-0.00001014,0.00000256,0.00000621,0.00000037,-0.00000791,-0.00001740
 ,-0.00000790,0.00000424,0.00000237,0.00000035,0.00000140,0.00001091,0.
 00000067,-0.00000235,-0.00000710,0.00000267,0.00001080,0.00000359,-0.0
 0000079,-0.00000831,-0.00001005,0.00000740,0.00000024,-0.00000199,-0.0
 0000222,0.00004391,0.00000099,0.00000535,0.00000318,0.00000040,-0.0000
 0215,0.00002747,-0.00003648,-0.00000257,0.00014645,-0.00028131,0.00011
 627,-0.00006109,0.00001876,0.00001161,-0.00181247,0.00241210,-0.001016
 94,0.00104394,-0.00068112,0.00039853,0.00002476,-0.00001032,-0.0000137
 2,0.00646318,0.00022344,0.00449092,0.00002256,-0.00000891,0.00000359,-
 0.00000546,-0.00000348,0.00000394,0.00000116,0.00000243,-0.00000173,-0
 .00000077,0.00000115,0.00000006,-0.00000132,0.00000382,-0.00000007,0.0
 0959709,-0.03989894,0.02900228,0.00290971,-0.00522138,0.02040544,-0.01
 497517,0.04046496,0.00006351,0.00013156,-0.00002444,-0.00001994,0.0000
 1693,0.00001561,0.00001971,0.00002553,0.00000584,0.00004450,-0.0000440
 0,-0.00001511,-0.00000905,-0.00001163,-0.00002584,-0.00000051,-0.00000
 662,-0.00001407,0.00000101,-0.00002488,-0.00005577,0.00000692,0.000010
 27,0.00001893,0.00000739,0.00000150,0.00003093,0.00000693,-0.00003056,
 -0.00002838,0.00000566,0.00001858,0.00001206,-0.00000175,-0.00000261,0
 .00003188,-0.00000860,0.00000778,-0.00001167,0.00003104,0.00001285,0.0
 0004440,-0.00001602,-0.00000215,0.00000394,0.00030028,-0.00018600,0.00
 005565,0.00048823,0.00022108,-0.00029494,-0.00040989,0.00000876,0.0000
 6698,-0.00256823,-0.00298220,0.00257032,-0.00022538,0.00049927,-0.0007
 6462,0.00017044,0.00000766,-0.00011062,-0.00676811,0.00394649,-0.00188
 323,0.00013437,0.00001861,0.00000072,-0.00003569,-0.00000144,0.0000248
 1,0.00000990,-0.00000178,-0.00000826,-0.00000589,-0.00001048,0.0000046
 7,-0.00000623,0.00000700,0.00000231,-0.05568985,0.03010185,-0.19476756
 ,-0.00117008,0.00823147,-0.01163661,0.06933163,-0.03651856,0.22646958,
 0.00009682,0.00011945,-0.00017795,0.00000334,-0.00001284,0.00002607,-0
 .00001091,0.00001246,-0.00000142,-0.00002527,-0.00006938,0.00002324,0.
 00001432,0.00001900,0.00002187,-0.00000684,0.00001210,-0.00000129,-0.0
 0000347,-0.00000962,0.00000224,-0.00000320,-0.00000082,-0.00000069,-0.
 00000246,0.00000917,-0.00000118,0.00000440,-0.00000866,0.00000065,-0.0
 0000164,-0.00000019,-0.00000315,0.00000299,-0.00001187,0.00000896,-0.0
 0000220,-0.00000239,-0.00000436,0.00000047,-0.00001922,-0.00002313,-0.
 00000107,0.00000160,-0.00000075,0.00026982,-0.00016378,-0.00008693,0.0
 0056126,0.00002977,-0.00032271,-0.00016427,0.00001348,-0.00000386,-0.0
 0252392,0.00334455,0.00257597,0.00045510,0.00012852,-0.00029049,0.0000
 9627,-0.00000554,-0.00004120,-0.02893260,0.02351656,0.01720938,0.00007
 361,0.00000668,0.00000619,-0.00002102,-0.00000049,0.00001253,0.0000047
 5,-0.00000005,-0.00000592,-0.00000245,-0.00000463,0.00000125,-0.000003
 03,0.00000477,-0.00000010,-0.03628631,0.01742234,0.01534882,0.00465685
 ,-0.00520147,-0.00292119,0.00489464,-0.00342728,-0.00368643,0.05685563
 ,-0.00002355,-0.00003962,0.00000209,-0.00001293,-0.00000291,-0.0000115
 2,-0.00002070,-0.00000566,-0.00000149,-0.00003136,-0.00000568,-0.00000
 026,0.00001706,0.00001912,0.00001103,0.00000372,0.00001346,0.00001640,
 -0.00000940,0.00001026,0.00001821,0.00000187,-0.00000619,-0.00000746,0
 .00000293,0.00000132,-0.00001150,-0.00000226,0.00001348,0.00001523,0.0
 0000258,-0.00000863,-0.00000508,-0.00000959,-0.00000422,-0.00001484,0.
 00000693,-0.00000714,0.00000801,0.00001091,-0.00000754,-0.00000935,0.0
 0001346,0.00000159,-0.00000364,-0.00020529,0.00007575,-0.00010395,-0.0
 0027600,-0.00039066,0.00020350,0.00024951,0.00004020,0.00006661,0.0006
 9143,0.00424386,-0.00098156,0.00081097,-0.00125184,-0.00016556,-0.0000
 9645,-0.00002201,0.00002517,0.01037783,-0.00696766,-0.00417876,-0.0000
 8748,-0.00003477,-0.00003910,0.00002474,-0.00000466,-0.00002548,-0.000
 00930,0.00000533,0.00000917,0.00000324,0.00001009,-0.00000006,0.000003
 22,-0.00000099,0.00000091,0.02541795,-0.14325530,-0.08621019,-0.000401
 88,-0.02221008,-0.01070931,-0.00075011,0.00295896,-0.00344382,-0.03570
 202,0.16683165,-0.00005841,-0.00013779,0.00004362,-0.00001438,0.000013
 62,-0.00003005,-0.00001285,-0.00001593,-0.00000571,-0.00003055,0.00004
 905,-0.00002591,-0.00004331,0.00000538,0.00008134,0.00000090,0.0000106
 6,0.00002995,-0.00000745,0.00002897,0.00001206,0.00000211,-0.00001045,
 -0.00000629,0.00000635,-0.00001096,-0.00001053,0.00000578,0.00001673,0
 .00000113,-0.00001195,-0.00001150,0.00000443,-0.00001340,0.00001273,-0
 .00002905,0.00000796,-0.00000834,0.00001744,0.00000632,-0.00002043,-0.
 00000176,0.00001263,0.,-0.00000359,-0.00030102,0.00014798,-0.00010698,
 -0.00057805,-0.00004189,0.00006942,0.00039505,0.00003445,0.00010888,0.
 00367656,0.00050588,-0.00046629,-0.00067416,-0.00010859,-0.00010179,-0
 .00015097,-0.00001686,0.00003051,0.00575642,-0.00497858,0.00043591,-0.
 00014758,-0.00003173,-0.00007514,0.00004110,-0.00000207,-0.00004377,-0
 .00001501,0.00000259,0.00001775,0.00000499,0.00001053,0.00000137,0.000
 00595,-0.00000651,0.00000328,0.02055362,-0.08645810,-0.10331289,-0.000
 85823,0.00233367,0.00614123,0.00010578,-0.01685920,-0.01971725,-0.0276
 6372,0.10554685,0.11693897\\0.00000633,-0.00000448,0.00000403,0.000002
 39,-0.00000286,-0.00000550,-0.00000293,0.00000140,-0.00000232,-0.00000
 638,0.00001000,-0.00000797,0.00000176,-0.00000548,-0.00000368,0.000004
 85,-0.00000648,-0.00000040,0.00000139,0.00000428,0.00000698,0.00000184
 ,0.00000635,-0.00000609,0.00000004,0.00000593,-0.00000370,0.00001440,0
 .00000260,-0.00000402,0.00000112,-0.00000284,-0.00000716,-0.00000550,-
 0.00001138,-0.00000687,0.00000640,0.00000398,-0.00000711,0.00000306,0.
 00000152,-0.00000162,0.00000254,0.00000478,-0.00000246,0.00000079,0.00
 000393,-0.00000238,-0.00001509,0.00000111,0.00000447,0.00000812,0.0000
 0542,0.00001065,0.00000006,0.00000840,-0.00000313,0.00000119,-0.000010
 93,0.00001353,-0.00000333,0.00000371,0.00000534,0.00000311,-0.00000690
 ,0.00000396,-0.00001311,0.00000291,-0.00000719,0.00000755,-0.00000087,
 0.00000604,-0.00000370,-0.00000031,0.00000163,-0.00000688,0.00000455,0
 .00000566,-0.00000291,0.00000609,-0.00000083,-0.00000777,-0.00000714,0
 .00000202,0.00000159,-0.00000571,0.00000029,-0.00000010,-0.00000364,0.
 00000452,-0.00000083,-0.00000793,0.00000331\\\@


  THE LARGE PRINT GIVETH,
  AND THE SMALL PRINT TAKETH AWAY.

                     -- TOM WAITS
 Job cpu time:       0 days  0 hours  0 minutes 35.6 seconds.
 File lengths (MBytes):  RWF=    219 Int=      0 D2E=      0 Chk=     22 Scr=      1
 Normal termination of Gaussian 09 at Mon Jul 12 13:38:42 2021.
