 Entering Gaussian System, Link 0=g09
 Input=quadricyclane_cycloaddition_PM6_toluene.com
 Output=quadricyclane_cycloaddition_PM6_toluene.log
 Initial command:
 /apps/applications/gaussian/G09.D01/2/default/g09/l1.exe "/local/725827.1.40core-192G.q/Gau-203962.inp" -scrdir="/local/725827.1.40core-192G.q/"
 Entering Link 1 = /apps/applications/gaussian/G09.D01/2/default/g09/l1.exe PID=    203963.
  
 Copyright (c) 1988,1990,1992,1993,1995,1998,2003,2009,2013,
            Gaussian, Inc.  All Rights Reserved.
  
 This is part of the Gaussian(R) 09 program.  It is based on
 the Gaussian(R) 03 system (copyright 2003, Gaussian, Inc.),
 the Gaussian(R) 98 system (copyright 1998, Gaussian, Inc.),
 the Gaussian(R) 94 system (copyright 1995, Gaussian, Inc.),
 the Gaussian 92(TM) system (copyright 1992, Gaussian, Inc.),
 the Gaussian 90(TM) system (copyright 1990, Gaussian, Inc.),
 the Gaussian 88(TM) system (copyright 1988, Gaussian, Inc.),
 the Gaussian 86(TM) system (copyright 1986, Carnegie Mellon
 University), and the Gaussian 82(TM) system (copyright 1983,
 Carnegie Mellon University). Gaussian is a federally registered
 trademark of Gaussian, Inc.
  
 This software contains proprietary and confidential information,
 including trade secrets, belonging to Gaussian, Inc.
  
 This software is provided under written license and may be
 used, copied, transmitted, or stored only in accord with that
 written license.
  
 The following legend is applicable only to US Government
 contracts under FAR:
  
                    RESTRICTED RIGHTS LEGEND
  
 Use, reproduction and disclosure by the US Government is
 subject to restrictions as set forth in subparagraphs (a)
 and (c) of the Commercial Computer Software - Restricted
 Rights clause in FAR 52.227-19.
  
 Gaussian, Inc.
 340 Quinnipiac St., Bldg. 40, Wallingford CT 06492
  
  
 ---------------------------------------------------------------
 Warning -- This program may not be used in any manner that
 competes with the business of Gaussian, Inc. or will provide
 assistance to any competitor of Gaussian, Inc.  The licensee
 of this program is prohibited from giving any competitor of
 Gaussian, Inc. access to this program.  By using this program,
 the user acknowledges that Gaussian, Inc. is engaged in the
 business of creating and licensing software in the field of
 computational chemistry and represents and warrants to the
 licensee that it is not a competitor of Gaussian, Inc. and that
 it will not use this program in any manner prohibited above.
 ---------------------------------------------------------------
  

 Cite this work as:
 Gaussian 09, Revision D.01,
 M. J. Frisch, G. W. Trucks, H. B. Schlegel, G. E. Scuseria, 
 M. A. Robb, J. R. Cheeseman, G. Scalmani, V. Barone, B. Mennucci, 
 G. A. Petersson, H. Nakatsuji, M. Caricato, X. Li, H. P. Hratchian, 
 A. F. Izmaylov, J. Bloino, G. Zheng, J. L. Sonnenberg, M. Hada, 
 M. Ehara, K. Toyota, R. Fukuda, J. Hasegawa, M. Ishida, T. Nakajima, 
 Y. Honda, O. Kitao, H. Nakai, T. Vreven, J. A. Montgomery, Jr., 
 J. E. Peralta, F. Ogliaro, M. Bearpark, J. J. Heyd, E. Brothers, 
 K. N. Kudin, V. N. Staroverov, T. Keith, R. Kobayashi, J. Normand, 
 K. Raghavachari, A. Rendell, J. C. Burant, S. S. Iyengar, J. Tomasi, 
 M. Cossi, N. Rega, J. M. Millam, M. Klene, J. E. Knox, J. B. Cross, 
 V. Bakken, C. Adamo, J. Jaramillo, R. Gomperts, R. E. Stratmann, 
 O. Yazyev, A. J. Austin, R. Cammi, C. Pomelli, J. W. Ochterski, 
 R. L. Martin, K. Morokuma, V. G. Zakrzewski, G. A. Voth, 
 P. Salvador, J. J. Dannenberg, S. Dapprich, A. D. Daniels, 
 O. Farkas, J. B. Foresman, J. V. Ortiz, J. Cioslowski, 
 and D. J. Fox, Gaussian, Inc., Wallingford CT, 2013.
 
 ******************************************
 Gaussian 09:  ES64L-G09RevD.01 24-Apr-2013
                 6-Sep-2020 
 ******************************************
 %nprocshared=4
 Will use up to    4 processors via shared memory.
 %chk=quadricyclane_cycloaddition_PM6_toluene.chk
 ----------------------------------------------------------------------
 # opt freq pm6 scrf=(cpcm,solvent=toluene) geom=connectivity empirical
 dispersion=gd3
 ----------------------------------------------------------------------
 1/14=-1,18=20,19=15,26=1,38=1,57=2/1,3;
 2/9=110,12=2,17=6,18=5,40=1/2;
 3/5=2,16=1,25=1,41=3900000,70=2101,71=1,72=13,124=31/1,2,3;
 4/35=1/1;
 5/5=2,35=1,38=5,53=13/2;
 6/7=2,8=2,9=2,10=2,28=1/1;
 7//1,2,3,16;
 1/14=-1,18=20,19=15,26=1/3(2);
 2/9=110/2;
 99//99;
 2/9=110/2;
 3/5=2,16=1,25=1,41=3900000,70=2105,71=1,72=13,124=31,135=20/1,2,3;
 4/5=5,16=3,35=1/1;
 5/5=2,35=1,38=5,53=13/2;
 7//1,2,3,16;
 1/14=-1,18=20,19=15,26=1/3(-5);
 2/9=110/2;
 6/7=2,8=2,9=2,10=2,19=2,28=1/1;
 99/9=1/99;
 -------------------
 Title Card Required
 -------------------
 Symbolic Z-matrix:
 Charge =  0 Multiplicity = 1
 C                    -0.12046  -0.08171  -1.07883 
 C                     1.2893    0.0244   -0.51867 
 C                     0.37445   2.17714  -0.2598 
 C                    -0.70284   1.2834   -0.74829 
 H                    -0.49926  -0.6707   -1.88784 
 H                    -1.58763   1.71863  -1.16377 
 C                     1.39265   1.23575   0.47014 
 H                     2.38061   1.6433    0.52252 
 H                     1.08949   0.99302   1.46717 
 C                     1.16824   0.62971  -1.86659 
 H                     1.22122  -0.00574  -2.72584 
 C                     0.43747   1.9591   -1.76345 
 H                    -0.21728   2.29931  -2.53833 
 H                     1.89831  -0.81919  -0.26893 
 H                     0.22849   3.13218   0.20008 
 

 GradGradGradGradGradGradGradGradGradGradGradGradGradGradGradGradGradGrad
 Berny optimization.
 Initialization pass.
                           ----------------------------
                           !    Initial Parameters    !
                           ! (Angstroms and Degrees)  !
 --------------------------                            --------------------------
 ! Name  Definition              Value          Derivative Info.                !
 --------------------------------------------------------------------------------
 ! R1    R(1,2)                  1.5207         estimate D2E/DX2                !
 ! R2    R(1,4)                  1.5205         estimate D2E/DX2                !
 ! R3    R(1,5)                  1.07           estimate D2E/DX2                !
 ! R4    R(1,10)                 1.6696         estimate D2E/DX2                !
 ! R5    R(2,7)                  1.5671         estimate D2E/DX2                !
 ! R6    R(2,10)                 1.4825         estimate D2E/DX2                !
 ! R7    R(2,14)                 1.07           estimate D2E/DX2                !
 ! R8    R(3,4)                  1.4825         estimate D2E/DX2                !
 ! R9    R(3,7)                  1.5671         estimate D2E/DX2                !
 ! R10   R(3,12)                 1.5207         estimate D2E/DX2                !
 ! R11   R(3,15)                 1.07           estimate D2E/DX2                !
 ! R12   R(4,6)                  1.07           estimate D2E/DX2                !
 ! R13   R(4,12)                 1.6696         estimate D2E/DX2                !
 ! R14   R(7,8)                  1.07           estimate D2E/DX2                !
 ! R15   R(7,9)                  1.07           estimate D2E/DX2                !
 ! R16   R(10,11)                1.07           estimate D2E/DX2                !
 ! R17   R(10,12)                1.5205         estimate D2E/DX2                !
 ! R18   R(12,13)                1.07           estimate D2E/DX2                !
 ! A1    A(2,1,4)              102.2603         estimate D2E/DX2                !
 ! A2    A(2,1,5)              130.1755         estimate D2E/DX2                !
 ! A3    A(4,1,5)              121.5309         estimate D2E/DX2                !
 ! A4    A(4,1,10)              90.8968         estimate D2E/DX2                !
 ! A5    A(5,1,10)              98.689          estimate D2E/DX2                !
 ! A6    A(1,2,7)              110.3355         estimate D2E/DX2                !
 ! A7    A(1,2,14)             123.9598         estimate D2E/DX2                !
 ! A8    A(7,2,10)             105.276          estimate D2E/DX2                !
 ! A9    A(7,2,14)             115.1264         estimate D2E/DX2                !
 ! A10   A(10,2,14)            125.4907         estimate D2E/DX2                !
 ! A11   A(4,3,7)              105.276          estimate D2E/DX2                !
 ! A12   A(4,3,15)             125.4907         estimate D2E/DX2                !
 ! A13   A(7,3,12)             110.3355         estimate D2E/DX2                !
 ! A14   A(7,3,15)             115.1264         estimate D2E/DX2                !
 ! A15   A(12,3,15)            123.9598         estimate D2E/DX2                !
 ! A16   A(1,4,3)              109.5444         estimate D2E/DX2                !
 ! A17   A(1,4,6)              126.6908         estimate D2E/DX2                !
 ! A18   A(1,4,12)              88.2566         estimate D2E/DX2                !
 ! A19   A(3,4,6)              118.9208         estimate D2E/DX2                !
 ! A20   A(6,4,12)              99.4425         estimate D2E/DX2                !
 ! A21   A(2,7,3)               97.3304         estimate D2E/DX2                !
 ! A22   A(2,7,8)              112.7191         estimate D2E/DX2                !
 ! A23   A(2,7,9)              113.1982         estimate D2E/DX2                !
 ! A24   A(3,7,8)              113.1982         estimate D2E/DX2                !
 ! A25   A(3,7,9)              112.7191         estimate D2E/DX2                !
 ! A26   A(8,7,9)              107.6015         estimate D2E/DX2                !
 ! A27   A(1,10,11)             99.4425         estimate D2E/DX2                !
 ! A28   A(1,10,12)             88.2566         estimate D2E/DX2                !
 ! A29   A(2,10,11)            118.9208         estimate D2E/DX2                !
 ! A30   A(2,10,12)            109.5444         estimate D2E/DX2                !
 ! A31   A(11,10,12)           126.6908         estimate D2E/DX2                !
 ! A32   A(3,12,10)            102.2603         estimate D2E/DX2                !
 ! A33   A(3,12,13)            130.1755         estimate D2E/DX2                !
 ! A34   A(4,12,10)             90.8968         estimate D2E/DX2                !
 ! A35   A(4,12,13)             98.689          estimate D2E/DX2                !
 ! A36   A(10,12,13)           121.5309         estimate D2E/DX2                !
 ! D1    D(4,1,2,7)             16.2487         estimate D2E/DX2                !
 ! D2    D(4,1,2,14)           158.9579         estimate D2E/DX2                !
 ! D3    D(5,1,2,7)            168.3642         estimate D2E/DX2                !
 ! D4    D(5,1,2,14)           -48.9267         estimate D2E/DX2                !
 ! D5    D(2,1,4,3)              9.5504         estimate D2E/DX2                !
 ! D6    D(2,1,4,6)            164.3031         estimate D2E/DX2                !
 ! D7    D(2,1,4,12)            63.8164         estimate D2E/DX2                !
 ! D8    D(5,1,4,3)           -145.6625         estimate D2E/DX2                !
 ! D9    D(5,1,4,6)              9.0903         estimate D2E/DX2                !
 ! D10   D(5,1,4,12)           -91.3965         estimate D2E/DX2                !
 ! D11   D(10,1,4,3)           -44.8926         estimate D2E/DX2                !
 ! D12   D(10,1,4,6)           109.8601         estimate D2E/DX2                !
 ! D13   D(10,1,4,12)            9.3734         estimate D2E/DX2                !
 ! D14   D(4,1,10,11)         -137.2377         estimate D2E/DX2                !
 ! D15   D(4,1,10,12)          -10.3017         estimate D2E/DX2                !
 ! D16   D(5,1,10,11)          -15.1318         estimate D2E/DX2                !
 ! D17   D(5,1,10,12)          111.8042         estimate D2E/DX2                !
 ! D18   D(1,2,7,3)            -33.4072         estimate D2E/DX2                !
 ! D19   D(1,2,7,8)           -152.3823         estimate D2E/DX2                !
 ! D20   D(1,2,7,9)             85.1986         estimate D2E/DX2                !
 ! D21   D(10,2,7,3)            37.8557         estimate D2E/DX2                !
 ! D22   D(10,2,7,8)           -81.1194         estimate D2E/DX2                !
 ! D23   D(10,2,7,9)           156.4615         estimate D2E/DX2                !
 ! D24   D(14,2,7,3)          -179.6937         estimate D2E/DX2                !
 ! D25   D(14,2,7,8)            61.3313         estimate D2E/DX2                !
 ! D26   D(14,2,7,9)           -61.0878         estimate D2E/DX2                !
 ! D27   D(7,2,10,11)          171.4953         estimate D2E/DX2                !
 ! D28   D(7,2,10,12)          -31.5058         estimate D2E/DX2                !
 ! D29   D(14,2,10,11)          34.1581         estimate D2E/DX2                !
 ! D30   D(14,2,10,12)        -168.843          estimate D2E/DX2                !
 ! D31   D(7,3,4,1)            -31.5058         estimate D2E/DX2                !
 ! D32   D(7,3,4,6)            171.4953         estimate D2E/DX2                !
 ! D33   D(15,3,4,1)          -168.843          estimate D2E/DX2                !
 ! D34   D(15,3,4,6)            34.1581         estimate D2E/DX2                !
 ! D35   D(4,3,7,2)             37.8557         estimate D2E/DX2                !
 ! D36   D(4,3,7,8)            156.4615         estimate D2E/DX2                !
 ! D37   D(4,3,7,9)            -81.1194         estimate D2E/DX2                !
 ! D38   D(12,3,7,2)           -33.4072         estimate D2E/DX2                !
 ! D39   D(12,3,7,8)            85.1986         estimate D2E/DX2                !
 ! D40   D(12,3,7,9)          -152.3823         estimate D2E/DX2                !
 ! D41   D(15,3,7,2)          -179.6937         estimate D2E/DX2                !
 ! D42   D(15,3,7,8)           -61.0878         estimate D2E/DX2                !
 ! D43   D(15,3,7,9)            61.3312         estimate D2E/DX2                !
 ! D44   D(7,3,12,10)           16.2487         estimate D2E/DX2                !
 ! D45   D(7,3,12,13)          168.3642         estimate D2E/DX2                !
 ! D46   D(15,3,12,10)         158.9579         estimate D2E/DX2                !
 ! D47   D(15,3,12,13)         -48.9267         estimate D2E/DX2                !
 ! D48   D(1,4,12,10)          -10.3017         estimate D2E/DX2                !
 ! D49   D(1,4,12,13)          111.8042         estimate D2E/DX2                !
 ! D50   D(6,4,12,10)         -137.2377         estimate D2E/DX2                !
 ! D51   D(6,4,12,13)          -15.1318         estimate D2E/DX2                !
 ! D52   D(1,10,12,3)           63.8164         estimate D2E/DX2                !
 ! D53   D(1,10,12,4)            9.3734         estimate D2E/DX2                !
 ! D54   D(1,10,12,13)         -91.3965         estimate D2E/DX2                !
 ! D55   D(2,10,12,3)            9.5504         estimate D2E/DX2                !
 ! D56   D(2,10,12,4)          -44.8926         estimate D2E/DX2                !
 ! D57   D(2,10,12,13)        -145.6625         estimate D2E/DX2                !
 ! D58   D(11,10,12,3)         164.3031         estimate D2E/DX2                !
 ! D59   D(11,10,12,4)         109.8601         estimate D2E/DX2                !
 ! D60   D(11,10,12,13)          9.0903         estimate D2E/DX2                !
 --------------------------------------------------------------------------------
 Trust Radius=3.00D-01 FncErr=1.00D-07 GrdErr=1.00D-07
 Number of steps in this run=    100 maximum allowed number of steps=    100.
 GradGradGradGradGradGradGradGradGradGradGradGradGradGradGradGradGradGrad

                          Input orientation:                          
 ---------------------------------------------------------------------
 Center     Atomic      Atomic             Coordinates (Angstroms)
 Number     Number       Type             X           Y           Z
 ---------------------------------------------------------------------
      1          6           0       -0.120455   -0.081714   -1.078831
      2          6           0        1.289298    0.024402   -0.518666
      3          6           0        0.374448    2.177138   -0.259804
      4          6           0       -0.702840    1.283398   -0.748295
      5          1           0       -0.499263   -0.670698   -1.887845
      6          1           0       -1.587629    1.718629   -1.163773
      7          6           0        1.392655    1.235748    0.470141
      8          1           0        2.380609    1.643304    0.522523
      9          1           0        1.089491    0.993017    1.467173
     10          6           0        1.168243    0.629707   -1.866589
     11          1           0        1.221217   -0.005738   -2.725835
     12          6           0        0.437474    1.959103   -1.763445
     13          1           0       -0.217285    2.299313   -2.538332
     14          1           0        1.898308   -0.819186   -0.268932
     15          1           0        0.228494    3.132181    0.200077
 ---------------------------------------------------------------------
                    Distance matrix (angstroms):
                    1          2          3          4          5
     1  C    0.000000
     2  C    1.520674   0.000000
     3  C    2.453192   2.353346   0.000000
     4  C    1.520512   2.367787   1.482547   0.000000
     5  H    1.070000   2.357279   3.394710   2.271235   0.000000
     6  H    2.324016   3.400483   2.208424   1.070000   2.723546
     7  C    2.534664   1.567093   1.567093   2.424449   3.574071
     8  H    3.434435   2.212664   2.218490   3.354425   4.411138
     9  H    3.016812   2.218490   2.212664   2.864450   4.067952
    10  C    1.669558   1.482547   2.367787   2.275708   2.114729
    11  H    2.125671   2.208424   3.400483   3.045412   2.025944
    12  C    2.223717   2.453192   1.520674   1.669558   2.794424
    13  H    2.794424   3.394710   2.357279   2.114729   3.053458
    14  H    2.296782   1.070000   3.361576   3.378849   2.896769
    15  H    3.476564   3.361576   1.070000   2.277014   4.398970
                    6          7          8          9         10
     6  H    0.000000
     7  C    3.432920   0.000000
     8  H    4.312329   1.070000   0.000000
     9  H    3.823005   1.070000   1.726911   0.000000
    10  C    3.045412   2.424449   2.864450   3.354425   0.000000
    11  H    3.647342   3.432920   3.823005   4.312329   1.070000
    12  C    2.125671   2.534664   3.016812   3.434435   1.520512
    13  H    2.025944   3.574071   4.067952   4.411138   2.271235
    14  H    4.403749   2.241577   2.631135   2.636726   2.277014
    15  H    2.675168   2.241577   2.636726   2.631135   3.378849
                   11         12         13         14         15
    11  H    0.000000
    12  C    2.324016   0.000000
    13  H    2.723546   1.070000   0.000000
    14  H    2.675168   3.476564   4.398970   0.000000
    15  H    4.403749   2.296782   2.896769   4.315269   0.000000
 Stoichiometry    C7H8
 Framework group  C2[C2(C),X(C6H8)]
 Deg. of freedom    20
 Full point group                 C2      NOp   2
 Largest Abelian subgroup         C2      NOp   2
 Largest concise Abelian subgroup C2      NOp   2
                         Standard orientation:                         
 ---------------------------------------------------------------------
 Center     Atomic      Atomic             Coordinates (Angstroms)
 Number     Number       Type             X           Y           Z
 ---------------------------------------------------------------------
      1          6           0       -1.106940    0.104466   -0.724279
      2          6           0       -0.907599   -0.748882    0.518504
      3          6           0        0.907599    0.748882    0.518504
      4          6           0        0.000000    1.137854   -0.587348
      5          1           0       -1.519261   -0.150817   -1.678073
      6          1           0        0.367895    1.786177   -1.354962
      7          6           0        0.000000    0.000000    1.553503
      8          1           0        0.545296   -0.669484    2.185440
      9          1           0       -0.545296    0.669484    2.185440
     10          6           0        0.000000   -1.137854   -0.587348
     11          1           0       -0.367895   -1.786177   -1.354962
     12          6           0        1.106940   -0.104466   -0.724279
     13          1           0        1.519261    0.150817   -1.678073
     14          1           0       -1.667532   -1.369206    0.945821
     15          1           0        1.667532    1.369206    0.945821
 ---------------------------------------------------------------------
 Rotational constants (GHZ):      4.3602566      4.3469615      3.2703963
 Standard basis: VSTO-6G (5D, 7F)
 There are    18 symmetry adapted cartesian basis functions of A   symmetry.
 There are    18 symmetry adapted cartesian basis functions of B   symmetry.
 There are    18 symmetry adapted basis functions of A   symmetry.
 There are    18 symmetry adapted basis functions of B   symmetry.
    36 basis functions,   216 primitive gaussians,    36 cartesian basis functions
    18 alpha electrons       18 beta electrons
       nuclear repulsion energy       169.9209427556 Hartrees.
 Integral buffers will be    131072 words long.
 Regular integral format.
 Two-electron integral symmetry is turned off.
 Nuclear repulsion after empirical dispersion term =      169.9184572813 Hartrees.
 ------------------------------------------------------------------------------
 Polarizable Continuum Model (PCM)
 =================================
 Model                : C-PCM.
 Atomic radii         : UFF (Universal Force Field).
 Polarization charges : Total charges.
 Charge compensation  : None.
 Solution method      : On-the-fly selection.
 Cavity type          : Scaled VdW (van der Waals Surface) (Alpha=1.100).
 Cavity algorithm     : GePol (No added spheres)
                        Default sphere list used, NSphG=   15.
                        Lebedev-Laikov grids with approx.  5.0 points / Ang**2.
                        Smoothing algorithm: Karplus/York (Gamma=1.0000).
                        Polarization charges: spherical gaussians, with
                                              point-specific exponents (IZeta= 3).
                        Self-potential: point-specific (ISelfS= 7).
                        Self-field    : sphere-specific E.n sum rule (ISelfD= 2).
 1st derivatives      : Analytical E(r).r(x)/FMM algorithm (CHGder, D1EAlg=3).
                        Cavity 1st derivative terms included.
 Solvent              : Toluene, Eps=   2.374100 Eps(inf)=   2.238315
 ------------------------------------------------------------------------------
 Spheres list:
 ISph  on   Nord     Re0    Alpha      Xe            Ye            Ze
    1   C      1    1.9255  1.100     -1.106940      0.104466     -0.724279
    2   C      2    1.9255  1.100     -0.907599     -0.748882      0.518504
    3   C      3    1.9255  1.100      0.907599      0.748882      0.518504
    4   C      4    1.9255  1.100      0.000000      1.137854     -0.587348
    5   H      5    1.4430  1.100     -1.519261     -0.150817     -1.678073
    6   H      6    1.4430  1.100      0.367895      1.786177     -1.354962
    7   C      7    1.9255  1.100      0.000000      0.000000      1.553503
    8   H      8    1.4430  1.100      0.545296     -0.669484      2.185440
    9   H      9    1.4430  1.100     -0.545296      0.669484      2.185440
   10   C     10    1.9255  1.100      0.000000     -1.137854     -0.587348
   11   H     11    1.4430  1.100     -0.367895     -1.786177     -1.354962
   12   C     12    1.9255  1.100      1.106940     -0.104466     -0.724279
   13   H     13    1.4430  1.100      1.519261      0.150817     -1.678073
   14   H     14    1.4430  1.100     -1.667532     -1.369206      0.945821
   15   H     15    1.4430  1.100      1.667532      1.369206      0.945821
 ------------------------------------------------------------------------------
 Do NDO integrals.
 One-electron integrals computed using PRISM.
 NBasis=    36 RedAO= T EigKep=  7.07D-01  NBF=    18    18
 NBsUse=    36 1.00D-06 EigRej= -1.00D+00 NBFU=    18    18
 Simple Huckel Guess.
 Initial guess orbital symmetries:
       Occupied  (A) (B) (A) (B) (A) (B) (A) (A) (B) (B) (A) (A)
                 (B) (B) (A) (B) (A) (B)
       Virtual   (B) (A) (B) (A) (B) (A) (B) (B) (A) (A) (B) (A)
                 (B) (B) (A) (B) (A) (A)
 The electronic state of the initial guess is 1-A.
 Overlap will be assumed to be unity.
 Keep J ints in memory in canonical form, NReq=4544673.
 Requested convergence on RMS density matrix=1.00D-08 within 128 cycles.
 Requested convergence on MAX density matrix=1.00D-06.
 Requested convergence on             energy=1.00D-06.
 No special actions if energy rises.
 Inv3:  Mode=1 IEnd=     4002075.
 Iteration    1 A*A^-1 deviation from unit magnitude is 3.44D-15 for   1118.
 Iteration    1 A*A^-1 deviation from orthogonality  is 2.03D-15 for   1151     76.
 Iteration    1 A^-1*A deviation from unit magnitude is 3.44D-15 for   1118.
 Iteration    1 A^-1*A deviation from orthogonality  is 1.64D-15 for   1135    664.
 Fock symm off for IB=2 I1=    1 I=   19 J=   16 Cut=1.00D-04 Err=1.97D-03
 Fock matrix is not symmetric: symmetry in diagonalization turned off.
 Error on total polarization charges =  0.00006
 SCF Done:  E(RPM6D3) =  0.216520088900     A.U. after   14 cycles
            NFock= 13  Conv=0.74D-08     -V/T= 1.0097

 **********************************************************************

            Population analysis using the SCF density.

 **********************************************************************

 Orbital symmetries:
       Occupied  (A) (B) (A) (B) (A) (B) (A) (A) (B) (B) (A) (A)
                 (B) (B) (A) (B) (A) (B)
       Virtual   (B) (A) (B) (A) (B) (A) (B) (B) (A) (A) (A) (B)
                 (A) (B) (B) (B) (A) (A)
 The electronic state is 1-A.
 Alpha  occ. eigenvalues --   -1.23695  -0.99347  -0.95243  -0.79991  -0.74322
 Alpha  occ. eigenvalues --   -0.73006  -0.67323  -0.64694  -0.56907  -0.53235
 Alpha  occ. eigenvalues --   -0.51778  -0.48679  -0.47734  -0.45420  -0.43590
 Alpha  occ. eigenvalues --   -0.42911  -0.41696  -0.31953
 Alpha virt. eigenvalues --    0.03318   0.06594   0.10710   0.12013   0.12037
 Alpha virt. eigenvalues --    0.12763   0.14177   0.15710   0.16471   0.17621
 Alpha virt. eigenvalues --    0.21030   0.21213   0.21468   0.21694   0.21987
 Alpha virt. eigenvalues --    0.22504   0.22665   0.23448
          Condensed to atoms (all electrons):
               1          2          3          4          5          6
     1  C    4.215902   0.000000   0.000000   0.000000   0.000000   0.000000
     2  C    0.000000   4.050996   0.000000   0.000000   0.000000   0.000000
     3  C    0.000000   0.000000   4.050996   0.000000   0.000000   0.000000
     4  C    0.000000   0.000000   0.000000   4.237967   0.000000   0.000000
     5  H    0.000000   0.000000   0.000000   0.000000   0.825783   0.000000
     6  H    0.000000   0.000000   0.000000   0.000000   0.000000   0.840249
     7  C    0.000000   0.000000   0.000000   0.000000   0.000000   0.000000
     8  H    0.000000   0.000000   0.000000   0.000000   0.000000   0.000000
     9  H    0.000000   0.000000   0.000000   0.000000   0.000000   0.000000
    10  C    0.000000   0.000000   0.000000   0.000000   0.000000   0.000000
    11  H    0.000000   0.000000   0.000000   0.000000   0.000000   0.000000
    12  C    0.000000   0.000000   0.000000   0.000000   0.000000   0.000000
    13  H    0.000000   0.000000   0.000000   0.000000   0.000000   0.000000
    14  H    0.000000   0.000000   0.000000   0.000000   0.000000   0.000000
    15  H    0.000000   0.000000   0.000000   0.000000   0.000000   0.000000
               7          8          9         10         11         12
     1  C    0.000000   0.000000   0.000000   0.000000   0.000000   0.000000
     2  C    0.000000   0.000000   0.000000   0.000000   0.000000   0.000000
     3  C    0.000000   0.000000   0.000000   0.000000   0.000000   0.000000
     4  C    0.000000   0.000000   0.000000   0.000000   0.000000   0.000000
     5  H    0.000000   0.000000   0.000000   0.000000   0.000000   0.000000
     6  H    0.000000   0.000000   0.000000   0.000000   0.000000   0.000000
     7  C    4.264726   0.000000   0.000000   0.000000   0.000000   0.000000
     8  H    0.000000   0.850401   0.000000   0.000000   0.000000   0.000000
     9  H    0.000000   0.000000   0.850401   0.000000   0.000000   0.000000
    10  C    0.000000   0.000000   0.000000   4.237967   0.000000   0.000000
    11  H    0.000000   0.000000   0.000000   0.000000   0.840249   0.000000
    12  C    0.000000   0.000000   0.000000   0.000000   0.000000   4.215902
    13  H    0.000000   0.000000   0.000000   0.000000   0.000000   0.000000
    14  H    0.000000   0.000000   0.000000   0.000000   0.000000   0.000000
    15  H    0.000000   0.000000   0.000000   0.000000   0.000000   0.000000
              13         14         15
     1  C    0.000000   0.000000   0.000000
     2  C    0.000000   0.000000   0.000000
     3  C    0.000000   0.000000   0.000000
     4  C    0.000000   0.000000   0.000000
     5  H    0.000000   0.000000   0.000000
     6  H    0.000000   0.000000   0.000000
     7  C    0.000000   0.000000   0.000000
     8  H    0.000000   0.000000   0.000000
     9  H    0.000000   0.000000   0.000000
    10  C    0.000000   0.000000   0.000000
    11  H    0.000000   0.000000   0.000000
    12  C    0.000000   0.000000   0.000000
    13  H    0.825783   0.000000   0.000000
    14  H    0.000000   0.846339   0.000000
    15  H    0.000000   0.000000   0.846339
 Mulliken charges:
               1
     1  C   -0.215902
     2  C   -0.050996
     3  C   -0.050996
     4  C   -0.237967
     5  H    0.174217
     6  H    0.159751
     7  C   -0.264726
     8  H    0.149599
     9  H    0.149599
    10  C   -0.237967
    11  H    0.159751
    12  C   -0.215902
    13  H    0.174217
    14  H    0.153661
    15  H    0.153661
 Sum of Mulliken charges =   0.00000
 Mulliken charges with hydrogens summed into heavy atoms:
               1
     1  C   -0.041685
     2  C    0.102665
     3  C    0.102665
     4  C   -0.078216
     7  C    0.034472
    10  C   -0.078216
    12  C   -0.041685
 Charge=              0.0000 electrons
 Dipole moment (field-independent basis, Debye):
    X=              0.0000    Y=              0.0000    Z=             -0.4387  Tot=              0.4387
 N-N= 1.699184572813D+02 E-N=-2.942655576822D+02  KE=-2.241595858649D+01
 Symmetry A    KE=-1.202013966165D+01
 Symmetry B    KE=-1.039581892484D+01
 D1PCM: C-PCM CHGder 1st derivatives, ID1Alg=3 FixD1E=F DoIter=F DoCFld=F I1PDM=0.
 Calling FoFJK, ICntrl=      2127 FMM=F ISym2X=1 I1Cent= 0 IOpClX= 0 NMat=1 NMatS=1 NMatT=0.
 ***** Axes restored to original set *****
 -------------------------------------------------------------------
 Center     Atomic                   Forces (Hartrees/Bohr)
 Number     Number              X              Y              Z
 -------------------------------------------------------------------
      1        6           0.015106492    0.023575498   -0.004007268
      2        6           0.019138731   -0.000734262    0.032647193
      3        6           0.021369222    0.010484331    0.029429654
      4        6          -0.010270746    0.008465462   -0.042412828
      5        1          -0.018207316   -0.022751993    0.019508646
      6        1          -0.026349924   -0.013769882    0.018826963
      7        6          -0.016719732   -0.004024359   -0.025622332
      8        1           0.013716386    0.004827774   -0.001477920
      9        1          -0.006310524   -0.003045219    0.012827113
     10        6          -0.032724667   -0.018814250   -0.023475955
     11        1           0.025872767    0.013655033   -0.019558187
     12        6          -0.006510820   -0.021506561    0.017179797
     13        1           0.021854966    0.023629965   -0.013918765
     14        1           0.003920530   -0.008144687   -0.001240000
     15        1          -0.003885365    0.008153151    0.001293889
 -------------------------------------------------------------------
 Cartesian Forces:  Max     0.042412828 RMS     0.018196296

 GradGradGradGradGradGradGradGradGradGradGradGradGradGradGradGradGradGrad
 Berny optimization.
 FormGI is forming the generalized inverse of G from B-inverse, IUseBI=4.
 Internal  Forces:  Max     0.017156113 RMS     0.007204970
 Search for a local minimum.
 Step number   1 out of a maximum of  100
 All quantities printed in internal units (Hartrees-Bohrs-Radians)
 Mixed Optimization -- RFO/linear search
 Second derivative matrix not updated -- first step.
 ITU=  0
     Eigenvalues ---    0.00991   0.01163   0.01991   0.02104   0.02309
     Eigenvalues ---    0.02663   0.02670   0.02841   0.05192   0.05627
     Eigenvalues ---    0.05897   0.06239   0.06581   0.06741   0.07021
     Eigenvalues ---    0.07661   0.07684   0.09638   0.09974   0.12280
     Eigenvalues ---    0.16864   0.18971   0.19741   0.20920   0.23207
     Eigenvalues ---    0.23925   0.24467   0.27222   0.28401   0.28860
     Eigenvalues ---    0.29613   0.37230   0.37230   0.37230   0.37230
     Eigenvalues ---    0.37230   0.37230   0.37230   0.37230
 RFO step:  Lambda=-4.86152439D-02 EMin= 9.91279531D-03
 Linear search not attempted -- first point.
 Maximum step size (   0.300) exceeded in Quadratic search.
    -- Step size scaled by   0.910
 Iteration  1 RMS(Cart)=  0.05499755 RMS(Int)=  0.00342455
 Iteration  2 RMS(Cart)=  0.00284773 RMS(Int)=  0.00153879
 Iteration  3 RMS(Cart)=  0.00000260 RMS(Int)=  0.00153879
 Iteration  4 RMS(Cart)=  0.00000000 RMS(Int)=  0.00153879
 ClnCor:  largest displacement from symmetrization is 1.23D-09 for atom     9.
 Variable       Old X    -DE/DX   Delta X   Delta X   Delta X     New X
                                 (Linear)    (Quad)   (Total)
    R1        2.87366   0.00608   0.00000   0.01062   0.01059   2.88425
    R2        2.87335   0.00611   0.00000   0.01644   0.01749   2.89084
    R3        2.02201   0.00422   0.00000   0.00912   0.00912   2.03113
    R4        3.15501   0.01547   0.00000   0.04422   0.04417   3.19918
    R5        2.96138  -0.00407   0.00000  -0.01249  -0.01396   2.94742
    R6        2.80161   0.01629   0.00000   0.05199   0.05252   2.85413
    R7        2.02201   0.00836   0.00000   0.01809   0.01809   2.04010
    R8        2.80161   0.01629   0.00000   0.05199   0.05252   2.85413
    R9        2.96138  -0.00407   0.00000  -0.01249  -0.01396   2.94742
   R10        2.87366   0.00608   0.00000   0.01062   0.01059   2.88425
   R11        2.02201   0.00836   0.00000   0.01809   0.01809   2.04010
   R12        2.02201   0.00888   0.00000   0.01920   0.01920   2.04121
   R13        3.15501   0.01547   0.00000   0.04422   0.04417   3.19918
   R14        2.02201   0.01443   0.00000   0.03121   0.03121   2.05322
   R15        2.02201   0.01443   0.00000   0.03121   0.03121   2.05322
   R16        2.02201   0.00888   0.00000   0.01920   0.01920   2.04121
   R17        2.87335   0.00611   0.00000   0.01644   0.01749   2.89084
   R18        2.02201   0.00422   0.00000   0.00912   0.00912   2.03113
    A1        1.78478   0.00442   0.00000   0.02909   0.02846   1.81323
    A2        2.27199   0.00381   0.00000   0.01925   0.01409   2.28608
    A3        2.12111  -0.00209   0.00000   0.01375   0.00992   2.13103
    A4        1.58645   0.00145   0.00000  -0.00185  -0.00237   1.58408
    A5        1.72245   0.00884   0.00000   0.10011   0.09983   1.82228
    A6        1.92572  -0.00616   0.00000  -0.03269  -0.03222   1.89349
    A7        2.16351   0.00275   0.00000   0.01161   0.01185   2.17536
    A8        1.83741  -0.00531   0.00000  -0.01106  -0.01074   1.82667
    A9        2.00933   0.00269   0.00000   0.00670   0.00574   2.01508
   A10        2.19023   0.00284   0.00000   0.01668   0.01678   2.20700
   A11        1.83741  -0.00531   0.00000  -0.01106  -0.01074   1.82667
   A12        2.19023   0.00284   0.00000   0.01668   0.01678   2.20700
   A13        1.92572  -0.00616   0.00000  -0.03269  -0.03222   1.89349
   A14        2.00933   0.00269   0.00000   0.00670   0.00574   2.01508
   A15        2.16351   0.00275   0.00000   0.01161   0.01185   2.17536
   A16        1.91191  -0.00288   0.00000  -0.01435  -0.01569   1.89622
   A17        2.21117   0.00022   0.00000   0.01655   0.00912   2.22029
   A18        1.54037  -0.00038   0.00000   0.01140   0.01040   1.55077
   A19        2.07556   0.00807   0.00000   0.06131   0.05824   2.13380
   A20        1.73560   0.01490   0.00000   0.13220   0.13073   1.86633
   A21        1.69874   0.01176   0.00000   0.04300   0.04334   1.74208
   A22        1.96732  -0.00430   0.00000  -0.01490  -0.01494   1.95238
   A23        1.97568  -0.00333   0.00000  -0.01090  -0.01093   1.96475
   A24        1.97568  -0.00333   0.00000  -0.01090  -0.01093   1.96475
   A25        1.96732  -0.00430   0.00000  -0.01490  -0.01494   1.95238
   A26        1.87800   0.00340   0.00000   0.00880   0.00862   1.88662
   A27        1.73560   0.01490   0.00000   0.13220   0.13073   1.86633
   A28        1.54037  -0.00038   0.00000   0.01140   0.01040   1.55077
   A29        2.07556   0.00807   0.00000   0.06131   0.05824   2.13380
   A30        1.91191  -0.00288   0.00000  -0.01435  -0.01569   1.89622
   A31        2.21117   0.00022   0.00000   0.01655   0.00912   2.22029
   A32        1.78478   0.00442   0.00000   0.02909   0.02846   1.81323
   A33        2.27199   0.00381   0.00000   0.01925   0.01409   2.28608
   A34        1.58645   0.00145   0.00000  -0.00185  -0.00237   1.58408
   A35        1.72245   0.00884   0.00000   0.10011   0.09983   1.82228
   A36        2.12111  -0.00209   0.00000   0.01375   0.00992   2.13103
    D1        0.28359  -0.00258   0.00000   0.02149   0.02151   0.30511
    D2        2.77434  -0.00314   0.00000  -0.00051  -0.00081   2.77352
    D3        2.93851   0.00997   0.00000   0.15918   0.15990   3.09841
    D4       -0.85393   0.00941   0.00000   0.13718   0.13758  -0.71635
    D5        0.16669  -0.00098   0.00000  -0.04309  -0.04331   0.12337
    D6        2.86763   0.01425   0.00000   0.12748   0.12647   2.99410
    D7        1.11381  -0.00413   0.00000  -0.04833  -0.04869   1.06512
    D8       -2.54229  -0.01400   0.00000  -0.16687  -0.16690  -2.70919
    D9        0.15866   0.00123   0.00000   0.00370   0.00288   0.16153
   D10       -1.59517  -0.01716   0.00000  -0.17212  -0.17228  -1.76745
   D11       -0.78352  -0.00293   0.00000  -0.04801  -0.04797  -0.83149
   D12        1.91742   0.01230   0.00000   0.12256   0.12181   2.03923
   D13        0.16360  -0.00608   0.00000  -0.05325  -0.05334   0.11025
   D14       -2.39525   0.00475   0.00000   0.02668   0.02569  -2.36956
   D15       -0.17980   0.00619   0.00000   0.05713   0.05773  -0.12207
   D16       -0.26410   0.00391   0.00000   0.05178   0.05022  -0.21388
   D17        1.95135   0.00535   0.00000   0.08223   0.08226   2.03361
   D18       -0.58307   0.00035   0.00000  -0.00872  -0.00869  -0.59175
   D19       -2.65957  -0.00066   0.00000  -0.01420  -0.01408  -2.67365
   D20        1.48700   0.00069   0.00000  -0.00603  -0.00595   1.48104
   D21        0.66071  -0.00077   0.00000  -0.01273  -0.01263   0.64808
   D22       -1.41580  -0.00178   0.00000  -0.01821  -0.01802  -1.43382
   D23        2.73077  -0.00043   0.00000  -0.01003  -0.00989   2.72087
   D24       -3.13625   0.00044   0.00000   0.00744   0.00712  -3.12913
   D25        1.07043  -0.00057   0.00000   0.00195   0.00172   1.07215
   D26       -1.06618   0.00079   0.00000   0.01013   0.00985  -1.05634
   D27        2.99316  -0.00743   0.00000  -0.09464  -0.09733   2.89583
   D28       -0.54988   0.00445   0.00000   0.04977   0.04939  -0.50049
   D29        0.59617  -0.00818   0.00000  -0.11075  -0.11254   0.48363
   D30       -2.94687   0.00370   0.00000   0.03366   0.03418  -2.91269
   D31       -0.54988   0.00445   0.00000   0.04977   0.04939  -0.50049
   D32        2.99316  -0.00743   0.00000  -0.09464  -0.09733   2.89583
   D33       -2.94687   0.00370   0.00000   0.03366   0.03418  -2.91269
   D34        0.59617  -0.00818   0.00000  -0.11075  -0.11254   0.48363
   D35        0.66071  -0.00077   0.00000  -0.01273  -0.01263   0.64808
   D36        2.73077  -0.00043   0.00000  -0.01003  -0.00989   2.72087
   D37       -1.41580  -0.00178   0.00000  -0.01821  -0.01802  -1.43382
   D38       -0.58307   0.00035   0.00000  -0.00872  -0.00869  -0.59175
   D39        1.48700   0.00069   0.00000  -0.00603  -0.00595   1.48104
   D40       -2.65957  -0.00066   0.00000  -0.01420  -0.01408  -2.67365
   D41       -3.13625   0.00044   0.00000   0.00744   0.00712  -3.12913
   D42       -1.06618   0.00079   0.00000   0.01013   0.00985  -1.05634
   D43        1.07043  -0.00057   0.00000   0.00195   0.00172   1.07215
   D44        0.28359  -0.00258   0.00000   0.02149   0.02151   0.30511
   D45        2.93851   0.00997   0.00000   0.15918   0.15990   3.09841
   D46        2.77434  -0.00314   0.00000  -0.00051  -0.00081   2.77352
   D47       -0.85393   0.00941   0.00000   0.13718   0.13758  -0.71635
   D48       -0.17980   0.00619   0.00000   0.05713   0.05773  -0.12207
   D49        1.95135   0.00535   0.00000   0.08223   0.08226   2.03361
   D50       -2.39525   0.00475   0.00000   0.02668   0.02569  -2.36956
   D51       -0.26410   0.00391   0.00000   0.05178   0.05022  -0.21388
   D52        1.11381  -0.00413   0.00000  -0.04833  -0.04869   1.06512
   D53        0.16360  -0.00608   0.00000  -0.05325  -0.05334   0.11025
   D54       -1.59517  -0.01716   0.00000  -0.17212  -0.17228  -1.76745
   D55        0.16669  -0.00098   0.00000  -0.04309  -0.04331   0.12337
   D56       -0.78352  -0.00293   0.00000  -0.04801  -0.04797  -0.83149
   D57       -2.54229  -0.01400   0.00000  -0.16687  -0.16690  -2.70919
   D58        2.86763   0.01425   0.00000   0.12748   0.12647   2.99410
   D59        1.91742   0.01230   0.00000   0.12256   0.12181   2.03923
   D60        0.15866   0.00123   0.00000   0.00370   0.00288   0.16153
         Item               Value     Threshold  Converged?
 Maximum Force            0.017156     0.000450     NO 
 RMS     Force            0.007205     0.000300     NO 
 Maximum Displacement     0.232753     0.001800     NO 
 RMS     Displacement     0.054578     0.001200     NO 
 Predicted change in Energy=-3.517307D-02
 GradGradGradGradGradGradGradGradGradGradGradGradGradGradGradGradGradGrad

                          Input orientation:                          
 ---------------------------------------------------------------------
 Center     Atomic      Atomic             Coordinates (Angstroms)
 Number     Number       Type             X           Y           Z
 ---------------------------------------------------------------------
      1          6           0       -0.128010   -0.091703   -1.057886
      2          6           0        1.297352    0.010153   -0.521702
      3          6           0        0.366378    2.191383   -0.256793
      4          6           0       -0.727900    1.285826   -0.770257
      5          1           0       -0.567701   -0.769414   -1.766854
      6          1           0       -1.680562    1.666907   -1.107840
      7          6           0        1.376121    1.231768    0.444804
      8          1           0        2.379688    1.645322    0.493246
      9          1           0        1.063813    0.984597    1.455690
     10          6           0        1.159171    0.619063   -1.896931
     11          1           0        1.302602    0.043205   -2.799463
     12          6           0        0.458027    1.972222   -1.764471
     13          1           0       -0.094117    2.411202   -2.575451
     14          1           0        1.913769   -0.834476   -0.253172
     15          1           0        0.234131    3.152549    0.216648
 ---------------------------------------------------------------------
                    Distance matrix (angstroms):
                    1          2          3          4          5
     1  C    0.000000
     2  C    1.526278   0.000000
     3  C    2.469545   2.386347   0.000000
     4  C    1.529767   2.406401   1.510338   0.000000
     5  H    1.074829   2.374142   3.452406   2.289734   0.000000
     6  H    2.346406   3.457797   2.278008   1.080162   2.758336
     7  C    2.504409   1.559706   1.559706   2.430267   3.560141
     8  H    3.422253   2.208019   2.216790   3.373837   4.430136
     9  H    2.982772   2.216790   2.208019   2.873293   4.015368
    10  C    1.692933   1.510338   2.406401   2.296738   2.219657
    11  H    2.257863   2.278008   3.457797   3.128054   2.285752
    12  C    2.258869   2.469545   1.526278   1.692933   2.927232
    13  H    2.927232   3.452406   2.374142   2.219657   3.315785
    14  H    2.316923   1.079572   3.398566   3.426583   2.907432
    15  H    3.504391   3.398566   1.079572   2.320375   4.467551
                    6          7          8          9         10
     6  H    0.000000
     7  C    3.455917   0.000000
     8  H    4.364581   1.086517   0.000000
     9  H    3.816913   1.086517   1.759086   0.000000
    10  C    3.128054   2.430267   2.873293   3.373837   0.000000
    11  H    3.794373   3.455917   3.816913   4.364581   1.080162
    12  C    2.257863   2.504409   2.982772   3.422253   1.529767
    13  H    2.285752   3.560141   4.015368   4.430136   2.289734
    14  H    4.461679   2.246241   2.631276   2.636600   2.320375
    15  H    2.761784   2.246241   2.636600   2.631276   3.426583
                   11         12         13         14         15
    11  H    0.000000
    12  C    2.346406   0.000000
    13  H    2.758336   1.074829   0.000000
    14  H    2.761784   3.504391   4.467551   0.000000
    15  H    4.461679   2.316923   2.907432   4.351814   0.000000
 Stoichiometry    C7H8
 Framework group  C2[C2(C),X(C6H8)]
 Deg. of freedom    20
 Full point group                 C2      NOp   2
 Largest Abelian subgroup         C2      NOp   2
 Largest concise Abelian subgroup C2      NOp   2
                         Standard orientation:                         
 ---------------------------------------------------------------------
 Center     Atomic      Atomic             Coordinates (Angstroms)
 Number     Number       Type             X           Y           Z
 ---------------------------------------------------------------------
      1          6           0       -0.807435   -0.789728   -0.705329
      2          6           0        0.000000   -1.193174    0.525444
      3          6           0        0.000000    1.193174    0.525444
      4          6           0       -0.882042    0.735359   -0.611890
      5          1           0       -1.007878   -1.316354   -1.620612
      6          1           0       -1.260545    1.417866   -1.358663
      7          6           0        0.000000    0.000000    1.529943
      8          1           0        0.879505   -0.008132    2.167849
      9          1           0       -0.879505    0.008132    2.167849
     10          6           0        0.882042   -0.735359   -0.611890
     11          1           0        1.260545   -1.417866   -1.358663
     12          6           0        0.807435    0.789728   -0.705329
     13          1           0        1.007878    1.316354   -1.620612
     14          1           0       -0.012147   -2.175873    0.972245
     15          1           0        0.012147    2.175873    0.972245
 ---------------------------------------------------------------------
 Rotational constants (GHZ):      4.3148385      4.1999206      3.2548631
 Standard basis: VSTO-6G (5D, 7F)
 There are    18 symmetry adapted cartesian basis functions of A   symmetry.
 There are    18 symmetry adapted cartesian basis functions of B   symmetry.
 There are    18 symmetry adapted basis functions of A   symmetry.
 There are    18 symmetry adapted basis functions of B   symmetry.
    36 basis functions,   216 primitive gaussians,    36 cartesian basis functions
    18 alpha electrons       18 beta electrons
       nuclear repulsion energy       168.8271948983 Hartrees.
 Integral buffers will be    131072 words long.
 Regular integral format.
 Two-electron integral symmetry is turned off.
 Nuclear repulsion after empirical dispersion term =      168.8246662099 Hartrees.
 ------------------------------------------------------------------------------
 Polarizable Continuum Model (PCM)
 =================================
 Model                : C-PCM.
 Atomic radii         : UFF (Universal Force Field).
 Polarization charges : Total charges.
 Charge compensation  : None.
 Solution method      : On-the-fly selection.
 Cavity type          : Scaled VdW (van der Waals Surface) (Alpha=1.100).
 Cavity algorithm     : GePol (No added spheres)
                        Default sphere list used, NSphG=   15.
                        Lebedev-Laikov grids with approx.  5.0 points / Ang**2.
                        Smoothing algorithm: Karplus/York (Gamma=1.0000).
                        Polarization charges: spherical gaussians, with
                                              point-specific exponents (IZeta= 3).
                        Self-potential: point-specific (ISelfS= 7).
                        Self-field    : sphere-specific E.n sum rule (ISelfD= 2).
 1st derivatives      : Analytical E(r).r(x)/FMM algorithm (CHGder, D1EAlg=3).
                        Cavity 1st derivative terms included.
 Solvent              : Toluene, Eps=   2.374100 Eps(inf)=   2.238315
 ------------------------------------------------------------------------------
 Spheres list:
 ISph  on   Nord     Re0    Alpha      Xe            Ye            Ze
    1   C      1    1.9255  1.100     -0.807435     -0.789728     -0.705329
    2   C      2    1.9255  1.100      0.000000     -1.193174      0.525444
    3   C      3    1.9255  1.100      0.000000      1.193174      0.525444
    4   C      4    1.9255  1.100     -0.882042      0.735359     -0.611890
    5   H      5    1.4430  1.100     -1.007878     -1.316354     -1.620612
    6   H      6    1.4430  1.100     -1.260545      1.417866     -1.358663
    7   C      7    1.9255  1.100      0.000000      0.000000      1.529943
    8   H      8    1.4430  1.100      0.879505     -0.008132      2.167849
    9   H      9    1.4430  1.100     -0.879505      0.008132      2.167849
   10   C     10    1.9255  1.100      0.882042     -0.735359     -0.611890
   11   H     11    1.4430  1.100      1.260545     -1.417866     -1.358663
   12   C     12    1.9255  1.100      0.807435      0.789728     -0.705329
   13   H     13    1.4430  1.100      1.007878      1.316354     -1.620612
   14   H     14    1.4430  1.100     -0.012147     -2.175873      0.972245
   15   H     15    1.4430  1.100      0.012147      2.175873      0.972245
 ------------------------------------------------------------------------------
 Do NDO integrals.
 One-electron integrals computed using PRISM.
 NBasis=    36 RedAO= T EigKep=  7.07D-01  NBF=    18    18
 NBsUse=    36 1.00D-06 EigRej= -1.00D+00 NBFU=    18    18
 Initial guess from the checkpoint file:  "quadricyclane_cycloaddition_PM6_toluene.chk"
 B after Tr=     0.000000    0.000000    0.000000
         Rot=    0.905401    0.000000    0.000000   -0.424556 Ang= -50.25 deg.
 Initial guess orbital symmetries:
       Occupied  (A) (B) (A) (B) (A) (B) (A) (A) (B) (B) (A) (A)
                 (B) (B) (A) (B) (A) (B)
       Virtual   (B) (A) (B) (A) (B) (A) (B) (B) (A) (A) (A) (B)
                 (A) (B) (B) (B) (A) (A)
 Overlap will be assumed to be unity.
 Keep J ints in memory in canonical form, NReq=4584533.
 Requested convergence on RMS density matrix=1.00D-08 within 128 cycles.
 Requested convergence on MAX density matrix=1.00D-06.
 Requested convergence on             energy=1.00D-06.
 No special actions if energy rises.
 Inv3:  Mode=1 IEnd=     4113723.
 Iteration    1 A*A^-1 deviation from unit magnitude is 4.88D-15 for   1170.
 Iteration    1 A*A^-1 deviation from orthogonality  is 2.61D-15 for   1155    125.
 Iteration    1 A^-1*A deviation from unit magnitude is 4.66D-15 for   1170.
 Iteration    1 A^-1*A deviation from orthogonality  is 2.53D-15 for   1152    953.
 Fock symm off for IB=2 I1=    1 I=   19 J=   13 Cut=1.00D-04 Err=4.90D-03
 Fock matrix is not symmetric: symmetry in diagonalization turned off.
 Error on total polarization charges =  0.00004
 SCF Done:  E(RPM6D3) =  0.181862119334     A.U. after   13 cycles
            NFock= 12  Conv=0.64D-08     -V/T= 1.0081
 D1PCM: C-PCM CHGder 1st derivatives, ID1Alg=3 FixD1E=F DoIter=F DoCFld=F I1PDM=0.
 Calling FoFJK, ICntrl=      2127 FMM=F ISym2X=1 I1Cent= 0 IOpClX= 0 NMat=1 NMatS=1 NMatT=0.
 ***** Axes restored to original set *****
 -------------------------------------------------------------------
 Center     Atomic                   Forces (Hartrees/Bohr)
 Number     Number              X              Y              Z
 -------------------------------------------------------------------
      1        6           0.024910777    0.028512407   -0.020002555
      2        6           0.005530516    0.008319248    0.014807939
      3        6           0.012215943   -0.004047761    0.012387813
      4        6           0.009702000    0.017918631   -0.043005284
      5        1          -0.009395742   -0.012751711    0.020807485
      6        1          -0.008003099   -0.013049580    0.016612295
      7        6          -0.006919545   -0.001665501   -0.010603930
      8        1           0.005978202    0.002105426   -0.000348784
      9        1          -0.002484471   -0.001264502    0.005702789
     10        6          -0.040167851   -0.025251614   -0.003682436
     11        1           0.016407130    0.015072390   -0.003733447
     12        6          -0.024252924   -0.028354065    0.021010689
     13        1           0.020798870    0.015496389   -0.003332640
     14        1           0.000123535   -0.002976080   -0.004414231
     15        1          -0.004443341    0.001936324   -0.002205702
 -------------------------------------------------------------------
 Cartesian Forces:  Max     0.043005284 RMS     0.016002341

 GradGradGradGradGradGradGradGradGradGradGradGradGradGradGradGradGradGrad
 Berny optimization.
 Using GEDIIS/GDIIS optimizer.
 FormGI is forming the generalized inverse of G from B-inverse, IUseBI=4.
 Internal  Forces:  Max     0.010197345 RMS     0.004178591
 Search for a local minimum.
 Step number   2 out of a maximum of  100
 All quantities printed in internal units (Hartrees-Bohrs-Radians)
 Mixed Optimization -- RFO/linear search
 Update second derivatives using D2CorX and points    1    2
 DE= -3.47D-02 DEPred=-3.52D-02 R= 9.85D-01
 TightC=F SS=  1.41D+00  RLast= 6.71D-01 DXNew= 5.0454D-01 2.0116D+00
 Trust test= 9.85D-01 RLast= 6.71D-01 DXMaxT set to 5.05D-01
 ITU=  1  0
 Use linear search instead of GDIIS.
     Eigenvalues ---    0.00955   0.01194   0.01860   0.01965   0.02142
     Eigenvalues ---    0.02214   0.02537   0.02612   0.05003   0.05539
     Eigenvalues ---    0.06236   0.06500   0.06599   0.07036   0.07251
     Eigenvalues ---    0.07613   0.07757   0.09555   0.10171   0.13130
     Eigenvalues ---    0.16686   0.19330   0.20769   0.20863   0.23455
     Eigenvalues ---    0.24024   0.24332   0.27329   0.28458   0.29602
     Eigenvalues ---    0.33287   0.36452   0.37230   0.37230   0.37230
     Eigenvalues ---    0.37230   0.37230   0.37230   0.40333
 RFO step:  Lambda=-3.85327997D-02 EMin= 9.55175790D-03
 Quartic linear search produced a step of  1.67142.
 Iteration  1 RMS(Cart)=  0.06640599 RMS(Int)=  0.05073256
 Iteration  2 RMS(Cart)=  0.03347263 RMS(Int)=  0.01118324
 Iteration  3 RMS(Cart)=  0.00198368 RMS(Int)=  0.01098910
 Iteration  4 RMS(Cart)=  0.00000715 RMS(Int)=  0.01098909
 Iteration  5 RMS(Cart)=  0.00000011 RMS(Int)=  0.01098909
 ClnCor:  largest displacement from symmetrization is 6.01D-09 for atom     9.
 Variable       Old X    -DE/DX   Delta X   Delta X   Delta X     New X
                                 (Linear)    (Quad)   (Total)
    R1        2.88425  -0.00384   0.01770  -0.03750  -0.01873   2.86551
    R2        2.89084  -0.00418   0.02923  -0.05326  -0.01709   2.87375
    R3        2.03113  -0.00184   0.01525  -0.02261  -0.00736   2.02378
    R4        3.19918  -0.00768   0.07383  -0.17569  -0.10133   3.09785
    R5        2.94742  -0.00519  -0.02333  -0.01314  -0.04716   2.90026
    R6        2.85413  -0.00021   0.08778  -0.04926   0.04070   2.89483
    R7        2.04010   0.00130   0.03023  -0.01856   0.01168   2.05177
    R8        2.85413  -0.00021   0.08778  -0.04926   0.04070   2.89483
    R9        2.94742  -0.00519  -0.02333  -0.01314  -0.04716   2.90026
   R10        2.88425  -0.00384   0.01770  -0.03750  -0.01873   2.86551
   R11        2.04010   0.00130   0.03023  -0.01856   0.01168   2.05177
   R12        2.04121  -0.00274   0.03210  -0.04154  -0.00945   2.03176
   R13        3.19918  -0.00768   0.07383  -0.17569  -0.10133   3.09785
   R14        2.05322   0.00631   0.05217  -0.01047   0.04170   2.09492
   R15        2.05322   0.00631   0.05217  -0.01047   0.04170   2.09492
   R16        2.04121  -0.00274   0.03210  -0.04154  -0.00945   2.03176
   R17        2.89084  -0.00418   0.02923  -0.05326  -0.01709   2.87375
   R18        2.03113  -0.00184   0.01525  -0.02261  -0.00736   2.02378
    A1        1.81323   0.00234   0.04756   0.00471   0.04695   1.86018
    A2        2.28608   0.00191   0.02355  -0.00091  -0.01376   2.27232
    A3        2.13103  -0.00131   0.01657   0.02740   0.01952   2.15055
    A4        1.58408   0.00087  -0.00396  -0.00612  -0.01354   1.57054
    A5        1.82228   0.00536   0.16687   0.05287   0.21817   2.04045
    A6        1.89349  -0.00155  -0.05386   0.01647  -0.03381   1.85968
    A7        2.17536   0.00177   0.01981  -0.00490   0.01857   2.19393
    A8        1.82667  -0.00019  -0.01796   0.03529   0.01958   1.84625
    A9        2.01508   0.00005   0.00960   0.00513   0.00862   2.02370
   A10        2.20700   0.00120   0.02804  -0.01376   0.01202   2.21902
   A11        1.82667  -0.00019  -0.01796   0.03529   0.01958   1.84625
   A12        2.20700   0.00120   0.02804  -0.01376   0.01202   2.21902
   A13        1.89349  -0.00155  -0.05386   0.01647  -0.03381   1.85968
   A14        2.01508   0.00005   0.00960   0.00513   0.00862   2.02370
   A15        2.17536   0.00177   0.01981  -0.00490   0.01857   2.19393
   A16        1.89622  -0.00153  -0.02623  -0.00382  -0.03897   1.85724
   A17        2.22029  -0.00134   0.01524   0.00491  -0.02501   2.19528
   A18        1.55077  -0.00049   0.01739   0.00877   0.02029   1.57106
   A19        2.13380   0.00529   0.09734   0.02327   0.09210   2.22589
   A20        1.86633   0.00849   0.21850   0.04315   0.25572   2.12205
   A21        1.74208   0.00248   0.07245  -0.03295   0.03918   1.78126
   A22        1.95238  -0.00094  -0.02497   0.01288  -0.01099   1.94139
   A23        1.96475  -0.00070  -0.01827   0.00638  -0.01247   1.95229
   A24        1.96475  -0.00070  -0.01827   0.00638  -0.01247   1.95229
   A25        1.95238  -0.00094  -0.02497   0.01288  -0.01099   1.94139
   A26        1.88662   0.00078   0.01441  -0.00586   0.00789   1.89451
   A27        1.86633   0.00849   0.21850   0.04315   0.25572   2.12205
   A28        1.55077  -0.00049   0.01739   0.00877   0.02029   1.57106
   A29        2.13380   0.00529   0.09734   0.02327   0.09210   2.22589
   A30        1.89622  -0.00153  -0.02623  -0.00382  -0.03897   1.85724
   A31        2.22029  -0.00134   0.01524   0.00491  -0.02501   2.19528
   A32        1.81323   0.00234   0.04756   0.00471   0.04695   1.86018
   A33        2.28608   0.00191   0.02355  -0.00091  -0.01376   2.27232
   A34        1.58408   0.00087  -0.00396  -0.00612  -0.01354   1.57054
   A35        1.82228   0.00536   0.16687   0.05287   0.21817   2.04045
   A36        2.13103  -0.00131   0.01657   0.02740   0.01952   2.15055
    D1        0.30511  -0.00040   0.03595   0.02157   0.05855   0.36366
    D2        2.77352  -0.00018  -0.00136   0.04939   0.04879   2.82231
    D3        3.09841   0.00865   0.26726   0.12676   0.38937  -2.79540
    D4       -0.71635   0.00887   0.22995   0.15457   0.37961  -0.33674
    D5        0.12337  -0.00145  -0.07239  -0.03596  -0.10745   0.01593
    D6        2.99410   0.00913   0.21138   0.06563   0.26197  -3.02711
    D7        1.06512  -0.00101  -0.08137   0.00194  -0.08190   0.98322
    D8       -2.70919  -0.01020  -0.27896  -0.12271  -0.40053  -3.10972
    D9        0.16153   0.00038   0.00481  -0.02111  -0.03111   0.13042
   D10       -1.76745  -0.00976  -0.28795  -0.08481  -0.37499  -2.14243
   D11       -0.83149  -0.00347  -0.08017  -0.05752  -0.13604  -0.96753
   D12        2.03923   0.00711   0.20360   0.04408   0.23338   2.27261
   D13        0.11025  -0.00303  -0.08916  -0.01962  -0.11049  -0.00024
   D14       -2.36956   0.00323   0.04294   0.00825   0.04235  -2.32721
   D15       -0.12207   0.00347   0.09649   0.02622   0.12233   0.00026
   D16       -0.21388   0.00313   0.08394   0.04490   0.11884  -0.09504
   D17        2.03361   0.00337   0.13749   0.06286   0.19882   2.23243
   D18       -0.59175   0.00115  -0.01452   0.01453   0.00019  -0.59156
   D19       -2.67365   0.00098  -0.02353   0.02004  -0.00244  -2.67609
   D20        1.48104   0.00117  -0.00995   0.01349   0.00424   1.48528
   D21        0.64808  -0.00157  -0.02111  -0.03056  -0.05114   0.59693
   D22       -1.43382  -0.00174  -0.03012  -0.02505  -0.05378  -1.48760
   D23        2.72087  -0.00155  -0.01654  -0.03160  -0.04710   2.67378
   D24       -3.12913   0.00013   0.01189  -0.00552   0.00239  -3.12674
   D25        1.07215  -0.00004   0.00288  -0.00001  -0.00024   1.07191
   D26       -1.05634   0.00015   0.01646  -0.00657   0.00644  -1.04990
   D27        2.89583  -0.00614  -0.16268  -0.05893  -0.24344   2.65238
   D28       -0.50049   0.00265   0.08255   0.03348   0.11211  -0.38838
   D29        0.48363  -0.00742  -0.18810  -0.10053  -0.30394   0.17969
   D30       -2.91269   0.00136   0.05713  -0.00812   0.05162  -2.86107
   D31       -0.50049   0.00265   0.08255   0.03348   0.11211  -0.38838
   D32        2.89583  -0.00614  -0.16268  -0.05893  -0.24344   2.65238
   D33       -2.91269   0.00136   0.05713  -0.00812   0.05162  -2.86107
   D34        0.48363  -0.00742  -0.18810  -0.10053  -0.30394   0.17969
   D35        0.64808  -0.00157  -0.02111  -0.03056  -0.05114   0.59693
   D36        2.72087  -0.00155  -0.01654  -0.03160  -0.04710   2.67378
   D37       -1.43382  -0.00174  -0.03012  -0.02505  -0.05378  -1.48760
   D38       -0.59175   0.00115  -0.01452   0.01453   0.00019  -0.59156
   D39        1.48104   0.00117  -0.00995   0.01349   0.00424   1.48528
   D40       -2.67365   0.00098  -0.02353   0.02004  -0.00244  -2.67609
   D41       -3.12913   0.00013   0.01189  -0.00552   0.00239  -3.12674
   D42       -1.05634   0.00015   0.01646  -0.00657   0.00644  -1.04990
   D43        1.07215  -0.00004   0.00288  -0.00001  -0.00024   1.07191
   D44        0.30511  -0.00040   0.03595   0.02157   0.05855   0.36366
   D45        3.09841   0.00865   0.26726   0.12676   0.38937  -2.79540
   D46        2.77352  -0.00018  -0.00136   0.04939   0.04879   2.82231
   D47       -0.71635   0.00887   0.22995   0.15457   0.37961  -0.33674
   D48       -0.12207   0.00347   0.09649   0.02622   0.12233   0.00026
   D49        2.03361   0.00337   0.13749   0.06286   0.19882   2.23243
   D50       -2.36956   0.00323   0.04294   0.00825   0.04235  -2.32721
   D51       -0.21388   0.00313   0.08394   0.04490   0.11884  -0.09504
   D52        1.06512  -0.00101  -0.08137   0.00194  -0.08190   0.98322
   D53        0.11025  -0.00303  -0.08916  -0.01962  -0.11049  -0.00024
   D54       -1.76745  -0.00976  -0.28795  -0.08481  -0.37499  -2.14243
   D55        0.12337  -0.00145  -0.07239  -0.03596  -0.10745   0.01593
   D56       -0.83149  -0.00347  -0.08017  -0.05752  -0.13604  -0.96753
   D57       -2.70919  -0.01020  -0.27896  -0.12271  -0.40053  -3.10972
   D58        2.99410   0.00913   0.21138   0.06563   0.26197  -3.02711
   D59        2.03923   0.00711   0.20360   0.04408   0.23338   2.27261
   D60        0.16153   0.00038   0.00481  -0.02111  -0.03111   0.13042
         Item               Value     Threshold  Converged?
 Maximum Force            0.010197     0.000450     NO 
 RMS     Force            0.004179     0.000300     NO 
 Maximum Displacement     0.529044     0.001800     NO 
 RMS     Displacement     0.095091     0.001200     NO 
 Predicted change in Energy=-3.885024D-02
 GradGradGradGradGradGradGradGradGradGradGradGradGradGradGradGradGradGrad

                          Input orientation:                          
 ---------------------------------------------------------------------
 Center     Atomic      Atomic             Coordinates (Angstroms)
 Number     Number       Type             X           Y           Z
 ---------------------------------------------------------------------
      1          6           0       -0.125615   -0.078297   -1.052783
      2          6           0        1.298245    0.012678   -0.539259
      3          6           0        0.350569    2.185269   -0.262094
      4          6           0       -0.742946    1.298949   -0.866501
      5          1           0       -0.652395   -0.903495   -1.486896
      6          1           0       -1.773490    1.554106   -1.036351
      7          6           0        1.347393    1.224853    0.400779
      8          1           0        2.367633    1.656060    0.446901
      9          1           0        1.028609    0.962484    1.429611
     10          6           0        1.080641    0.583417   -1.944090
     11          1           0        1.389351    0.154518   -2.880423
     12          6           0        0.463525    1.960714   -1.757480
     13          1           0        0.173797    2.589384   -2.574632
     14          1           0        1.927306   -0.828210   -0.263491
     15          1           0        0.220142    3.146175    0.226275
 ---------------------------------------------------------------------
                    Distance matrix (angstroms):
                    1          2          3          4          5
     1  C    0.000000
     2  C    1.516365   0.000000
     3  C    2.444518   2.386433   0.000000
     4  C    1.520725   2.434758   1.531877   0.000000
     5  H    1.070936   2.354228   3.470813   2.289946   0.000000
     6  H    2.319591   3.472559   2.347226   1.075163   2.738549
     7  C    2.445566   1.534749   1.534749   2.445610   3.477404
     8  H    3.387231   2.194722   2.202563   3.395329   4.405844
     9  H    2.928777   2.202563   2.194722   2.919546   3.848853
    10  C    1.639313   1.531877   2.434758   2.235767   2.328808
    11  H    2.385287   2.347226   3.472559   3.148379   2.688873
    12  C    2.236348   2.444518   1.516365   1.639313   3.085805
    13  H    3.085805   3.470813   2.354228   2.328808   3.750462
    14  H    2.323755   1.085752   3.401052   3.466796   2.856089
    15  H    3.486080   3.401052   1.085752   2.352434   4.482868
                    6          7          8          9         10
     6  H    0.000000
     7  C    3.451617   0.000000
     8  H    4.399924   1.108583   0.000000
     9  H    3.779252   1.108583   1.799931   0.000000
    10  C    3.148379   2.445610   2.919546   3.395329   0.000000
    11  H    3.919568   3.451617   3.779252   4.399924   1.075163
    12  C    2.385287   2.445566   2.928777   3.387231   1.520725
    13  H    2.688873   3.477404   3.848853   4.405844   2.289946
    14  H    4.468628   2.234418   2.621096   2.623134   2.352434
    15  H    2.846661   2.234418   2.623134   2.621096   3.466796
                   11         12         13         14         15
    11  H    0.000000
    12  C    2.319591   0.000000
    13  H    2.738549   1.070936   0.000000
    14  H    2.846661   3.486080   4.482868   0.000000
    15  H    4.468628   2.323755   2.856089   4.353161   0.000000
 Stoichiometry    C7H8
 Framework group  C2[C2(C),X(C6H8)]
 Deg. of freedom    20
 Full point group                 C2      NOp   2
 Largest Abelian subgroup         C2      NOp   2
 Largest concise Abelian subgroup C2      NOp   2
                         Standard orientation:                         
 ---------------------------------------------------------------------
 Center     Atomic      Atomic             Coordinates (Angstroms)
 Number     Number       Type             X           Y           Z
 ---------------------------------------------------------------------
      1          6           0       -0.810571   -0.770251   -0.674177
      2          6           0        0.000000   -1.193217    0.535549
      3          6           0        0.000000    1.193217    0.535549
      4          6           0       -0.828621    0.750367   -0.674375
      5          1           0       -1.288194   -1.362735   -1.427664
      6          1           0       -1.399248    1.372172   -1.340496
      7          6           0        0.000000    0.000000    1.500790
      8          1           0        0.899936   -0.007224    2.148107
      9          1           0       -0.899936    0.007224    2.148107
     10          6           0        0.828621   -0.750367   -0.674375
     11          1           0        1.399248   -1.372172   -1.340496
     12          6           0        0.810571    0.770251   -0.674177
     13          1           0        1.288194    1.362735   -1.427664
     14          1           0       -0.014500   -2.176532    0.995697
     15          1           0        0.014500    2.176532    0.995697
 ---------------------------------------------------------------------
 Rotational constants (GHZ):      4.3593884      4.2051444      3.2866001
 Standard basis: VSTO-6G (5D, 7F)
 There are    18 symmetry adapted cartesian basis functions of A   symmetry.
 There are    18 symmetry adapted cartesian basis functions of B   symmetry.
 There are    18 symmetry adapted basis functions of A   symmetry.
 There are    18 symmetry adapted basis functions of B   symmetry.
    36 basis functions,   216 primitive gaussians,    36 cartesian basis functions
    18 alpha electrons       18 beta electrons
       nuclear repulsion energy       169.0251915403 Hartrees.
 Integral buffers will be    131072 words long.
 Regular integral format.
 Two-electron integral symmetry is turned off.
 Nuclear repulsion after empirical dispersion term =      169.0225254047 Hartrees.
 ------------------------------------------------------------------------------
 Polarizable Continuum Model (PCM)
 =================================
 Model                : C-PCM.
 Atomic radii         : UFF (Universal Force Field).
 Polarization charges : Total charges.
 Charge compensation  : None.
 Solution method      : On-the-fly selection.
 Cavity type          : Scaled VdW (van der Waals Surface) (Alpha=1.100).
 Cavity algorithm     : GePol (No added spheres)
                        Default sphere list used, NSphG=   15.
                        Lebedev-Laikov grids with approx.  5.0 points / Ang**2.
                        Smoothing algorithm: Karplus/York (Gamma=1.0000).
                        Polarization charges: spherical gaussians, with
                                              point-specific exponents (IZeta= 3).
                        Self-potential: point-specific (ISelfS= 7).
                        Self-field    : sphere-specific E.n sum rule (ISelfD= 2).
 1st derivatives      : Analytical E(r).r(x)/FMM algorithm (CHGder, D1EAlg=3).
                        Cavity 1st derivative terms included.
 Solvent              : Toluene, Eps=   2.374100 Eps(inf)=   2.238315
 ------------------------------------------------------------------------------
 Spheres list:
 ISph  on   Nord     Re0    Alpha      Xe            Ye            Ze
    1   C      1    1.9255  1.100     -0.810571     -0.770251     -0.674177
    2   C      2    1.9255  1.100      0.000000     -1.193217      0.535549
    3   C      3    1.9255  1.100      0.000000      1.193217      0.535549
    4   C      4    1.9255  1.100     -0.828621      0.750367     -0.674375
    5   H      5    1.4430  1.100     -1.288194     -1.362735     -1.427664
    6   H      6    1.4430  1.100     -1.399248      1.372172     -1.340496
    7   C      7    1.9255  1.100      0.000000      0.000000      1.500790
    8   H      8    1.4430  1.100      0.899936     -0.007224      2.148107
    9   H      9    1.4430  1.100     -0.899936      0.007224      2.148107
   10   C     10    1.9255  1.100      0.828621     -0.750367     -0.674375
   11   H     11    1.4430  1.100      1.399248     -1.372172     -1.340496
   12   C     12    1.9255  1.100      0.810571      0.770251     -0.674177
   13   H     13    1.4430  1.100      1.288194      1.362735     -1.427664
   14   H     14    1.4430  1.100     -0.014500     -2.176532      0.995697
   15   H     15    1.4430  1.100      0.014500      2.176532      0.995697
 ------------------------------------------------------------------------------
 Do NDO integrals.
 One-electron integrals computed using PRISM.
 NBasis=    36 RedAO= T EigKep=  7.07D-01  NBF=    18    18
 NBsUse=    36 1.00D-06 EigRej= -1.00D+00 NBFU=    18    18
 Initial guess from the checkpoint file:  "quadricyclane_cycloaddition_PM6_toluene.chk"
 B after Tr=     0.000000    0.000000    0.000000
         Rot=    0.999976    0.000000    0.000000    0.006868 Ang=   0.79 deg.
 Initial guess orbital symmetries:
       Occupied  (A) (B) (A) (B) (A) (B) (A) (A) (B) (B) (A) (A)
                 (B) (B) (A) (B) (A) (B)
       Virtual   (B) (A) (B) (B) (A) (A) (B) (B) (A) (A) (A) (B)
                 (B) (A) (B) (B) (A) (A)
 Overlap will be assumed to be unity.
 Keep J ints in memory in canonical form, NReq=4629845.
 Requested convergence on RMS density matrix=1.00D-08 within 128 cycles.
 Requested convergence on MAX density matrix=1.00D-06.
 Requested convergence on             energy=1.00D-06.
 No special actions if energy rises.
 Inv3:  Mode=1 IEnd=     4241163.
 Iteration    1 A*A^-1 deviation from unit magnitude is 3.77D-15 for   1170.
 Iteration    1 A*A^-1 deviation from orthogonality  is 2.11D-15 for   1184    150.
 Iteration    1 A^-1*A deviation from unit magnitude is 3.77D-15 for   1170.
 Iteration    1 A^-1*A deviation from orthogonality  is 2.15D-15 for   1017    378.
 Fock symm off for IB=2 I1=    1 I=   19 J=    4 Cut=1.00D-04 Err=1.27D-02
 Fock matrix is not symmetric: symmetry in diagonalization turned off.
 Error on total polarization charges =  0.00010
 SCF Done:  E(RPM6D3) =  0.137744954997     A.U. after   14 cycles
            NFock= 13  Conv=0.41D-08     -V/T= 1.0062
 D1PCM: C-PCM CHGder 1st derivatives, ID1Alg=3 FixD1E=F DoIter=F DoCFld=F I1PDM=0.
 Calling FoFJK, ICntrl=      2127 FMM=F ISym2X=1 I1Cent= 0 IOpClX= 0 NMat=1 NMatS=1 NMatT=0.
 ***** Axes restored to original set *****
 -------------------------------------------------------------------
 Center     Atomic                   Forces (Hartrees/Bohr)
 Number     Number              X              Y              Z
 -------------------------------------------------------------------
      1        6           0.015231024    0.004444711   -0.034038720
      2        6           0.004401163    0.004575362    0.007810558
      3        6           0.005857149   -0.002106236    0.007909902
      4        6           0.010432045    0.022660706   -0.019949869
      5        1          -0.002697198   -0.004484533    0.012725167
      6        1           0.002156412   -0.004097274    0.007824742
      7        6           0.010449162    0.002515063    0.016012930
      8        1          -0.003025504   -0.001060775    0.001444658
      9        1           0.002399062    0.000909994   -0.002404655
     10        6          -0.019054727   -0.024736143    0.006735947
     11        1           0.005571067    0.005957241    0.004017317
     12        6          -0.036286961   -0.009512774    0.001771323
     13        1           0.011929439    0.006706688    0.001422881
     14        1          -0.002431390   -0.000360765   -0.006539059
     15        1          -0.004930744   -0.001411265   -0.004743122
 -------------------------------------------------------------------
 Cartesian Forces:  Max     0.036286961 RMS     0.011644979

 GradGradGradGradGradGradGradGradGradGradGradGradGradGradGradGradGradGrad
 Berny optimization.
 Using GEDIIS/GDIIS optimizer.
 FormGI is forming the generalized inverse of G from B-inverse, IUseBI=4.
 Internal  Forces:  Max     0.013983893 RMS     0.003342046
 Search for a local minimum.
 Step number   3 out of a maximum of  100
 All quantities printed in internal units (Hartrees-Bohrs-Radians)
 Mixed Optimization -- RFO/linear search
 Update second derivatives using D2CorX and points    2    3
 DE= -4.41D-02 DEPred=-3.89D-02 R= 1.14D+00
 TightC=F SS=  1.41D+00  RLast= 1.53D+00 DXNew= 8.4853D-01 4.5845D+00
 Trust test= 1.14D+00 RLast= 1.53D+00 DXMaxT set to 8.49D-01
 ITU=  1  1  0
 Use linear search instead of GDIIS.
     Eigenvalues ---    0.00887   0.01187   0.01330   0.01706   0.01945
     Eigenvalues ---    0.02075   0.02204   0.02447   0.04670   0.05464
     Eigenvalues ---    0.06549   0.06551   0.06596   0.06946   0.07282
     Eigenvalues ---    0.07836   0.08057   0.09506   0.10569   0.13485
     Eigenvalues ---    0.16654   0.19811   0.20225   0.21732   0.23472
     Eigenvalues ---    0.24170   0.24801   0.27531   0.28385   0.30436
     Eigenvalues ---    0.33605   0.36704   0.37230   0.37230   0.37230
     Eigenvalues ---    0.37230   0.37230   0.37267   0.40362
 RFO step:  Lambda=-1.50757825D-02 EMin= 8.87134194D-03
 Quartic linear search produced a step of  0.65089.
 Iteration  1 RMS(Cart)=  0.04381426 RMS(Int)=  0.03458448
 Iteration  2 RMS(Cart)=  0.01934734 RMS(Int)=  0.01088761
 Iteration  3 RMS(Cart)=  0.00084473 RMS(Int)=  0.01085590
 Iteration  4 RMS(Cart)=  0.00000370 RMS(Int)=  0.01085590
 Iteration  5 RMS(Cart)=  0.00000006 RMS(Int)=  0.01085590
 ClnCor:  largest displacement from symmetrization is 1.73D-09 for atom    13.
 Variable       Old X    -DE/DX   Delta X   Delta X   Delta X     New X
                                 (Linear)    (Quad)   (Total)
    R1        2.86551   0.00193  -0.01219   0.03685   0.02774   2.89326
    R2        2.87375   0.00694  -0.01112   0.04328   0.03762   2.91137
    R3        2.02378  -0.00038  -0.00479   0.00294  -0.00185   2.02193
    R4        3.09785  -0.01398  -0.06595  -0.10014  -0.16726   2.93059
    R5        2.90026   0.00640  -0.03070   0.04837   0.00873   2.90899
    R6        2.89483  -0.00246   0.02649   0.00012   0.02819   2.92302
    R7        2.05177  -0.00279   0.00760  -0.01098  -0.00338   2.04839
    R8        2.89483  -0.00246   0.02649   0.00012   0.02819   2.92302
    R9        2.90026   0.00640  -0.03070   0.04837   0.00873   2.90899
   R10        2.86551   0.00193  -0.01219   0.03685   0.02774   2.89326
   R11        2.05177  -0.00279   0.00760  -0.01098  -0.00338   2.04839
   R12        2.03176  -0.00428  -0.00615  -0.00952  -0.01567   2.01609
   R13        3.09785  -0.01398  -0.06595  -0.10014  -0.16726   2.93059
   R14        2.09492  -0.00314   0.02714  -0.01955   0.00759   2.10251
   R15        2.09492  -0.00314   0.02714  -0.01955   0.00759   2.10251
   R16        2.03176  -0.00428  -0.00615  -0.00952  -0.01567   2.01609
[...]
 ! D12   D(10,1,4,6)           142.9672         -DE/DX =    0.0                 !
 ! D13   D(10,1,4,12)           -0.002          -DE/DX =    0.0                 !
 ! D14   D(4,1,10,11)         -138.3398         -DE/DX =    0.0                 !
 ! D15   D(4,1,10,12)            0.002          -DE/DX =    0.0                 !
 ! D16   D(5,1,10,11)            0.0176         -DE/DX =    0.0                 !
 ! D17   D(5,1,10,12)          138.3593         -DE/DX =    0.0                 !
 ! D18   D(1,2,7,3)            -32.1162         -DE/DX =    0.0                 !
 ! D19   D(1,2,7,8)           -151.3418         -DE/DX =    0.0                 !
 ! D20   D(1,2,7,9)             87.1037         -DE/DX =    0.0                 !
 ! D21   D(10,2,7,3)            32.1061         -DE/DX =    0.0                 !
 ! D22   D(10,2,7,8)           -87.1196         -DE/DX =    0.0                 !
 ! D23   D(10,2,7,9)           151.326          -DE/DX =    0.0                 !
 ! D24   D(14,2,7,3)           180.0226         -DE/DX =    0.0                 !
 ! D25   D(14,2,7,8)            60.7969         -DE/DX =    0.0                 !
 ! D26   D(14,2,7,9)           -60.7575         -DE/DX =    0.0                 !
 ! D27   D(7,2,10,11)          136.789          -DE/DX =    0.0                 !
 ! D28   D(7,2,10,12)          -20.7135         -DE/DX =    0.0                 !
 ! D29   D(14,2,10,11)          -9.9372         -DE/DX =    0.0                 !
 ! D30   D(14,2,10,12)        -167.4397         -DE/DX =    0.0                 !
 ! D31   D(7,3,4,1)            -20.7135         -DE/DX =    0.0                 !
 ! D32   D(7,3,4,6)            136.789          -DE/DX =    0.0                 !
 ! D33   D(15,3,4,1)          -167.4397         -DE/DX =    0.0                 !
 ! D34   D(15,3,4,6)            -9.9372         -DE/DX =    0.0                 !
 ! D35   D(4,3,7,2)             32.1061         -DE/DX =    0.0                 !
 ! D36   D(4,3,7,8)            151.326          -DE/DX =    0.0                 !
 ! D37   D(4,3,7,9)            -87.1196         -DE/DX =    0.0                 !
 ! D38   D(12,3,7,2)           -32.1162         -DE/DX =    0.0                 !
 ! D39   D(12,3,7,8)            87.1037         -DE/DX =    0.0                 !
 ! D40   D(12,3,7,9)          -151.3418         -DE/DX =    0.0                 !
 ! D41   D(15,3,7,2)           180.0226         -DE/DX =    0.0                 !
 ! D42   D(15,3,7,8)           -60.7575         -DE/DX =    0.0                 !
 ! D43   D(15,3,7,9)            60.7969         -DE/DX =    0.0                 !
 ! D44   D(7,3,12,10)           20.7445         -DE/DX =    0.0                 !
 ! D45   D(7,3,12,13)         -136.7392         -DE/DX =    0.0                 !
 ! D46   D(15,3,12,10)         167.4219         -DE/DX =    0.0                 !
 ! D47   D(15,3,12,13)           9.9382         -DE/DX =    0.0                 !
 ! D48   D(1,4,12,10)            0.002          -DE/DX =    0.0                 !
 ! D49   D(1,4,12,13)          138.3593         -DE/DX =    0.0                 !
 ! D50   D(6,4,12,10)         -138.3398         -DE/DX =    0.0                 !
 ! D51   D(6,4,12,13)            0.0176         -DE/DX =    0.0                 !
 ! D52   D(1,10,12,3)           58.7414         -DE/DX =    0.0                 !
 ! D53   D(1,10,12,4)           -0.002          -DE/DX =    0.0                 !
 ! D54   D(1,10,12,13)        -143.0062         -DE/DX =    0.0                 !
 ! D55   D(2,10,12,3)           -0.0186         -DE/DX =    0.0                 !
 ! D56   D(2,10,12,4)          -58.762          -DE/DX =    0.0                 !
 ! D57   D(2,10,12,13)         158.2338         -DE/DX =    0.0                 !
 ! D58   D(11,10,12,3)        -158.2894         -DE/DX =    0.0                 !
 ! D59   D(11,10,12,4)         142.9672         -DE/DX =    0.0                 !
 ! D60   D(11,10,12,13)         -0.0371         -DE/DX =    0.0                 !
 --------------------------------------------------------------------------------
 GradGradGradGradGradGradGradGradGradGradGradGradGradGradGradGradGradGrad

 1\1\GINC-D8S2B2\Freq\RPM6\ZDO\C7H8\CHMKSH\06-Sep-2020\0\\#N Geom=AllCh
 eck Guess=TCheck SCRF=Check GenChk RPM6/ZDO Freq\\Title Card Required\
 \0,1\C,-0.1268417291,-0.0793260376,-1.1369772759\C,1.2926957445,0.0343
 952427,-0.5486119981\C,0.347513365,2.1614797534,-0.2659271633\C,-0.750
 8636167,1.3257021191,-0.9504865778\H,-0.6946285122,-0.9736794475,-1.26
 65110687\H,-1.800918189,1.5169431901,-0.9365068066\C,1.3537740063,1.22
 63891574,0.4105579025\H,2.3615101902,1.6666923926,0.4661643483\H,1.049
 9717522,0.9555194192,1.4337025684\C,1.0121238811,0.5382665503,-1.97723
 75525\H,1.4852591554,0.2081637908,-2.8753234985\C,0.3881306005,1.94330
 15926,-1.7907030152\H,0.3796096097,2.6989405049,-2.5443382608\H,1.9073
 415661,-0.8324149058,-0.3520756684\H,0.1480855009,3.1282308588,0.17384
 17258\\Version=ES64L-G09RevD.01\State=1-A\HF=0.1180836\RMSD=3.683e-10\
 RMSF=7.633e-05\ZeroPoint=0.1206759\Thermal=0.1253318\Dipole=0.0668321,
 0.0160862,0.1024176\DipoleDeriv=-0.340139,-0.1582294,0.0169166,-0.1563
 612,-0.2019111,-0.031207,-0.0028768,-0.098411,-0.0335808,-0.076944,0.1
 852435,-0.1073038,0.212646,-0.2004559,0.0653735,-0.0874884,0.0283573,0
 .0051946,0.0481506,0.0868161,-0.010324,0.0596004,-0.2682315,-0.1919622
 ,-0.0301688,-0.1548242,-0.0521245,-0.4261436,-0.0776237,0.0100032,-0.0
 686587,-0.1392566,0.0165196,-0.0527431,0.0470164,-0.0081054,0.1462902,
 0.1112987,0.0184895,0.1292505,0.2353359,0.016583,0.0140392,0.0203474,0
 .1072351,0.3169926,-0.0263729,-0.0014909,-0.0431594,0.0679471,-0.00163
 73,-0.0054968,-0.0091538,0.1037606,-0.4011824,-0.0892474,-0.0335754,-0
 .0892305,-0.2325501,0.0202854,-0.0335781,0.0202964,-0.4553935,0.213039
 2,0.0378126,0.032314,0.0418735,0.1356124,0.0094728,0.0016774,-0.004130
 2,0.1550414,0.1479424,0.0163888,-0.0241902,0.0123228,0.1271144,-0.0254
 015,0.0064472,-0.011802,0.2286363,-0.0494914,-0.0379943,0.1152713,0.00
 64308,-0.1334653,0.0179985,0.1696319,0.0223411,-0.3905489,0.1446729,-0
 .011592,-0.0895255,-0.023847,0.0861364,0.0703298,-0.0809583,0.0588954,
 0.2578909,-0.0925395,0.0573389,0.077172,0.0018657,-0.1262849,0.1344443
 ,0.1053849,0.1666686,-0.3568065,0.0950277,0.0101578,0.0092221,0.021309
 6,0.1879808,-0.1321542,0.0091012,-0.1169271,0.2058527,0.1734903,-0.085
 1392,0.0184013,-0.0919416,0.2113181,-0.0529104,0.0134382,-0.0437314,0.
 0998234,0.100823,-0.0188567,-0.031385,-0.0121001,0.2506994,0.084264,-0
 .0264147,0.0750552,0.1331095\Polar=52.1720081,2.3108647,47.7960472,0.8
 96839,-0.5174095,53.5986312\HyperPolar=11.5350372,7.1308876,1.2626983,
 -0.1667399,-2.3166576,1.5117352,-1.4394542,-11.2455439,-6.5905427,6.13
 47845\PG=C02 [C2(C1),X(C6H8)]\NImag=0\\0.50890059,0.13655949,0.5507160
 4,-0.00060941,0.02092788,0.22325769,-0.18222195,-0.03099761,-0.0318354
 3,0.40344041,0.00925737,-0.04223024,-0.00315952,-0.13214359,0.49129487
 ,-0.11008422,-0.02735242,-0.04302127,0.14384649,0.01595261,0.43269369,
 0.00772472,-0.01134266,-0.00077961,-0.00283659,0.02191522,0.00342178,0
 .34148253,-0.00957475,-0.03704868,-0.02398122,0.02503243,-0.04572692,-
 0.00448165,-0.06958188,0.52500094,-0.00008459,-0.01258949,-0.00143371,
 0.00571427,-0.00870687,0.00786865,0.10559027,0.12547141,0.46094549,-0.
 06966294,0.06881880,-0.00206523,-0.02928133,0.02293536,-0.00158632,-0.
 12835736,-0.07123935,-0.10475983,0.66631447,0.03301120,-0.15805614,-0.
 01745732,0.02590735,-0.00654124,0.00456617,-0.05161555,-0.08854595,-0.
 06987081,-0.00476634,0.38991235,-0.00485634,-0.02187450,-0.04666574,-0
 .00998197,0.01192524,0.00507492,-0.02771164,-0.02508259,-0.05081626,-0
 .02982721,0.02365892,0.22688089,-0.08866812,-0.08715636,-0.01139123,-0
 .01723364,-0.01526103,-0.00621984,-0.00060025,0.00121032,-0.00014632,0
 .00614667,0.00725266,0.00191375,0.11138810,-0.08705738,-0.17211972,-0.
 02108155,-0.00578376,-0.00028399,-0.00087136,0.00039663,-0.00113381,0.
 00046489,-0.00567162,-0.02591921,-0.00469207,0.10619406,0.20687898,-0.
 01110995,-0.02129859,-0.03624393,-0.00971122,-0.01147848,-0.00126619,-
 0.00027073,-0.00032432,-0.00039176,-0.00224316,-0.00461513,0.00205508,
 0.01457452,0.02431284,0.03267514,-0.01093304,0.00963457,0.00126057,-0.
 00010669,-0.00011977,0.00019321,-0.02032570,-0.00369121,-0.00391562,-0
 .22319792,0.03539916,0.00276162,0.00044025,0.00034092,-0.00001585,0.27
 183576,0.02308456,-0.00944523,-0.00032573,0.00077431,-0.00148600,-0.00
 074372,-0.01109880,0.00135505,-0.00240907,0.03526348,-0.04111871,0.000
 85207,0.00033851,-0.00016121,-0.00005715,-0.03953118,0.04938656,0.0014
 5566,-0.00216700,0.00266910,-0.00028656,-0.00022359,-0.00053220,-0.015
 99986,0.00128441,0.00018919,0.00276234,0.00119210,-0.03268664,0.000006
 39,-0.00010710,0.00028148,-0.00425055,0.00248040,0.02969162,-0.0116881
 4,-0.01909576,-0.02056905,-0.05485399,-0.00875644,-0.00318492,-0.11660
 212,0.06237714,-0.03457992,-0.03070732,0.00457009,-0.02391016,-0.00113
 583,0.00097522,-0.00170001,-0.00012116,-0.00086133,-0.00190076,0.44641
 532,-0.01418864,-0.00878147,-0.01676126,0.00033635,-0.14329052,-0.0627
 9455,0.05328683,-0.10984676,0.03356951,-0.00219873,0.00734036,-0.00001
 786,-0.00022977,0.00028548,-0.00070864,-0.00023307,-0.00071248,-0.0009
 3998,0.01346514,0.40539359,-0.01492142,-0.00890098,-0.01084258,0.00349
 824,-0.07511755,-0.10774694,-0.04126346,0.04589412,-0.07944257,-0.0155
 8627,-0.00167120,-0.00795979,0.00039834,0.00015382,-0.00002753,0.00034
 993,0.00012951,-0.00004369,0.05119028,0.01048674,0.49305233,0.00014820
 ,0.00040660,0.00034658,-0.00363708,-0.00995431,-0.00646745,-0.02946633
 ,0.00179722,-0.00899258,-0.00123306,0.00086856,-0.00096912,-0.00006087
 ,-0.00015479,0.00004955,-0.00017938,-0.00009407,-0.00014608,-0.1849031
 2,-0.06569007,-0.00731410,0.23014201,-0.00045233,-0.00191725,-0.001871
 43,-0.02140570,-0.01740575,-0.00997592,0.01485970,0.00539152,0.0022598
 9,0.00185523,-0.00115670,0.00132985,-0.00020461,0.00008397,-0.00020890
 ,-0.00002963,0.00015408,0.00025869,-0.06594419,-0.06367576,-0.00353716
 ,0.08055388,0.07874469,-0.00062333,-0.00126507,-0.00119725,-0.01382484
 ,-0.01337825,-0.00340447,-0.01372907,0.00028689,-0.00036641,-0.0009649
 5,0.00029479,-0.00057770,-0.00013722,0.00004668,-0.00019795,-0.0000687
 3,-0.00004583,-0.00014948,-0.00542434,-0.00269726,-0.03266969,0.016250
 29,0.00762828,0.04090132,0.00010393,-0.00020755,-0.00026140,0.00258090
 ,0.00080353,0.00318385,0.00267457,0.00767030,-0.01549548,0.00043660,-0
 .00006458,0.00007300,0.00001520,0.00001916,-0.00000542,0.00005517,0.00
 005259,0.00006818,-0.04761851,-0.01220025,0.04912882,-0.01119246,-0.00
 928609,0.01887296,0.05438115,0.00025227,0.00059410,0.00041925,0.005002
 79,0.00092321,-0.02173544,0.00186403,-0.00792834,0.02118294,-0.0005769
 7,0.00045437,-0.00030837,0.00010137,-0.00000476,0.00006448,0.00000049,
 -0.00005559,-0.00009791,-0.01195008,-0.04575837,0.04215400,-0.00770697
 ,-0.00059709,0.00931161,0.01174435,0.05580301,0.00000098,0.00051517,-0
 .00003224,0.00520913,-0.00849838,-0.02794531,-0.00542752,0.01332387,-0
 .01919353,0.00021139,-0.00022704,-0.00022372,-0.00002079,-0.00018540,0
 .00017022,-0.00014250,0.00005167,0.00018100,0.04723968,0.04131153,-0.1
 8787169,0.00699153,0.00403186,-0.00290614,-0.05359182,-0.04979985,0.23
 960386,-0.12229239,-0.06219144,0.04771155,-0.02048240,0.00573777,0.012
 77970,0.00253122,0.00190227,0.00838588,-0.05426183,0.03282347,0.046039
 45,-0.01005201,-0.00826459,0.00939987,-0.00116720,0.00039313,0.0014493
 9,0.00278729,-0.00322937,-0.00731580,-0.00023392,-0.00011104,-0.000227
 37,0.00006515,-0.00030924,-0.00018843,0.33377484,-0.07449233,-0.049964
 56,0.01816097,0.03678478,-0.05499005,0.05410009,0.01146785,-0.01692236
 ,-0.02689577,0.02365050,-0.00917857,-0.02038654,-0.01209052,-0.0070180
 4,0.01357386,0.00017116,-0.00014398,0.00021441,0.00262530,0.00468370,-
 0.01501554,0.00003988,0.00063051,0.00007474,0.00024917,-0.00190198,-0.
 00094636,-0.07085637,0.37736265,0.12968998,0.05353296,-0.07823045,-0.0
 7222707,0.04237686,-0.19224713,0.01481233,-0.02607352,-0.01635652,0.03
 107744,-0.00993060,-0.01115628,0.00123843,0.00121482,0.00218192,0.0002
 4582,-0.00049079,0.00000115,-0.00097461,-0.00843148,-0.03879775,-0.000
 19317,0.00058891,0.00027066,-0.00011700,-0.00226087,-0.00113064,-0.172
 03597,0.01080880,0.57197022,-0.00992762,0.00350184,0.01807369,0.004833
 70,-0.00353041,-0.00564394,-0.00060522,0.00019093,-0.00042370,-0.00089
 870,0.00012503,0.00161470,0.00000312,0.00008122,-0.00002978,-0.0000833
 0,0.00007861,-0.00001291,0.00046665,0.00053364,-0.00185014,0.00017346,
 0.00014898,0.00010732,-0.00003443,-0.00029207,-0.00004847,-0.07124410,
 0.02618319,0.07391407,0.07976197,-0.00442592,0.00348149,0.00755259,-0.
 00039646,0.00251217,0.00429566,0.00110156,-0.00130357,-0.00020683,0.00
 058298,-0.00012494,0.00003060,0.00005561,0.00035237,0.00031537,0.00006
 081,-0.00002097,-0.00006939,-0.00017924,-0.00039781,0.00042843,-0.0000
 1150,-0.00004213,-0.00003004,-0.00002573,0.00009896,0.00001031,0.02643
 758,-0.05426462,-0.05159628,-0.03561257,0.06240057,0.00689225,0.000753
 56,-0.00845280,0.00711153,-0.00218657,-0.02612732,-0.00022737,0.000450
 69,-0.00021609,0.00030434,-0.00023092,-0.00028639,0.00031059,0.0004811
 2,0.00041930,0.00021413,0.00001253,0.00002648,0.00061120,0.00062277,-0
 .00094616,-0.00008634,0.00004881,0.00004925,-0.00000284,-0.00016247,-0
 .00023931,0.07389471,-0.05185886,-0.17149456,-0.09300102,0.05797126,0.
 20875139,0.00102986,-0.02458643,0.00990041,-0.00369253,0.02064897,-0.0
 1104328,-0.01662423,0.01879077,0.03633077,-0.13398649,-0.05191458,0.04
 073146,-0.00023774,-0.00078736,0.00101617,-0.01663011,-0.00809777,0.01
 682007,0.00091739,0.00674232,-0.01884312,0.00021642,-0.00037894,-0.000
 18286,-0.00127563,0.00153516,-0.00048401,-0.06118183,0.04576336,0.0054
 4761,-0.00312645,0.01209336,0.00445652,0.26832689,-0.01343416,-0.07664
 318,0.03481426,0.00987988,-0.02400437,0.02150683,0.00836183,-0.0400557
 3,0.00712407,-0.06132682,-0.04364461,0.03775951,-0.00023900,-0.0012612
 6,0.00069144,-0.00139838,0.00180654,-0.00189401,-0.00096602,-0.0001100
 4,0.01328858,-0.00058262,0.00034538,-0.00014536,0.00110494,-0.00118830
 ,0.00036382,0.06269899,-0.15695111,-0.03190107,0.00869678,-0.01276875,
 -0.00576133,-0.02175070,0.48844448,0.00988206,0.01771944,0.00103203,-0
 .00837914,0.02471760,-0.00306077,-0.03395738,-0.05014239,-0.21079351,0
 .12225619,0.07501647,-0.07285630,-0.00022946,0.00030677,0.00019006,0.0
 0334123,0.00085184,-0.00007536,-0.01121405,0.01291669,-0.03211954,0.00
 018373,-0.00048240,0.00010398,-0.00152126,0.00124993,-0.00050237,-0.00
 562760,-0.00190090,-0.05625188,0.00729760,-0.01859575,-0.00181397,-0.0
 8613416,-0.15352464,0.52610294,-0.00001728,-0.00032981,0.00104547,-0.0
 0036307,0.00087886,-0.00023765,0.00160727,0.00386686,-0.00258165,-0.00
 097099,-0.01369341,0.01441946,0.00002907,-0.00000628,-0.00006289,0.000
 33600,-0.00023372,0.00017243,0.00015931,0.00031862,-0.00100260,0.00012
 763,0.00001319,0.00004710,-0.00013604,0.00007039,-0.00002031,0.0010405
 0,0.00977071,-0.00701162,0.00024269,0.00023679,-0.00009014,-0.03475904
 ,0.00258162,-0.00045233,0.03253411,-0.00046121,-0.00121738,0.00103214,
 -0.00011257,-0.00134989,-0.00042490,-0.00133044,0.00430037,-0.00012070
 ,-0.00289127,-0.00663661,0.00927224,-0.00004646,-0.00015831,-0.0000002
 8,-0.00029944,0.00017183,-0.00025826,0.00045356,0.00021688,-0.00146052
 ,0.00020355,0.00001188,0.00007204,-0.00018115,0.00014817,0.00006216,0.
 00584383,-0.02224559,0.01269006,0.00028747,-0.00018712,-0.00013938,0.0
 0236292,-0.13212036,0.09869981,-0.00373800,0.15852709,-0.00009340,0.00
 020389,-0.00007427,0.00017029,-0.00081361,-0.00041285,0.00023750,0.013
 27929,-0.02469145,0.00396047,0.00645868,-0.00728052,0.00014772,0.00011
 198,0.00005127,0.00051910,-0.00011869,0.00026696,0.00088530,0.00027630
 ,-0.00125406,0.00001475,-0.00010726,0.00004114,-0.00017540,0.00018610,
 -0.00018698,-0.00020799,0.00161697,0.00348764,-0.00007625,-0.00015469,
 0.00050494,-0.00071481,0.09883872,-0.13015237,-0.00434201,-0.11962107,
 0.15988103,-0.02153579,0.01785047,-0.00865617,-0.09478227,0.08624615,-
 0.01865532,-0.00016649,-0.00063837,-0.00013662,-0.00145972,0.00044235,
 -0.00184263,-0.00027784,-0.00012394,0.00019827,-0.00009805,0.00027150,
 -0.00004746,0.00233105,0.00410383,0.00149610,0.00034125,-0.00000733,-0
 .00000544,0.00001099,0.00003753,0.00032677,0.00044063,0.00043991,-0.00
 440510,0.00039988,-0.00006988,-0.00041032,0.00052094,0.00002570,0.0006
 2972,0.00015321,-0.00002055,-0.00013901,0.11400734,0.00218241,0.003118
 09,0.00248833,0.08655802,-0.15643472,0.02761604,0.00013951,-0.00163456
 ,-0.00070939,-0.00067793,0.00003509,-0.00103666,0.00011324,0.00063411,
 -0.00018335,0.00015172,0.00016599,-0.00000374,0.01136423,-0.02478095,-
 0.00534330,-0.00018853,-0.00052800,-0.00026295,0.00013925,-0.00022847,
 -0.00045658,0.00865054,-0.00927205,0.00880825,-0.00045314,0.00015698,0
 .00017611,0.00036312,-0.00020779,0.00032772,0.00007153,-0.00010969,0.0
 0010620,-0.10866285,0.18931568,-0.00553338,0.00190924,-0.00067893,-0.0
 1842945,0.02719344,-0.03930236,0.00043576,-0.00176456,-0.00111873,-0.0
 0010462,0.00005571,-0.00010895,-0.00035013,-0.00012328,0.00004110,-0.0
 0003999,-0.00005366,0.00006339,0.00683221,-0.01518565,0.00155252,0.000
 19688,-0.00018781,0.00000351,0.00006616,-0.00042400,0.00003491,-0.0130
 0551,0.01949488,-0.01026103,0.00003045,0.00031429,-0.00016011,-0.00168
 418,0.00029899,-0.00184495,-0.00016686,0.00019351,0.00008777,0.0316030
 3,-0.03159270,0.05144396,-0.00096026,-0.00086433,-0.00217106,-0.001363
 30,0.00134264,-0.00030238,-0.04043557,0.03188717,0.01509493,0.00111908
 ,-0.01834555,-0.00845407,0.00024374,-0.00015735,-0.00008937,0.00017567
 ,-0.00034010,-0.00009019,-0.00544735,0.01918325,0.00203492,-0.00024268
 ,0.00038884,-0.00008945,-0.00006654,0.00022687,-0.00005549,0.00027605,
 0.00029333,0.00053931,0.00003841,0.00015241,0.00002252,0.00050316,0.00
 634841,0.00392508,0.00001663,-0.00007022,-0.00018620,0.00011498,0.0002
 4892,0.00014976,0.04602790,-0.00026123,-0.00048648,-0.00075686,0.00056
 398,-0.00098624,0.00034265,0.03157617,-0.18590105,-0.06856406,-0.00375
 696,-0.01681935,-0.01143058,-0.00003788,-0.00017420,-0.00008292,-0.000
 45642,0.00010414,0.00033084,0.01192245,-0.02056641,-0.00148905,0.00051
 313,-0.00003922,0.00010977,0.00018202,-0.00035881,0.00044327,0.0004753
 9,0.00017626,0.00066383,0.00006049,0.00010746,-0.00017703,-0.00078476,
 -0.00164140,-0.00715969,0.00019244,0.00064904,-0.00026312,0.00010534,-
 0.00022982,-0.00012870,-0.04029408,0.22616608,-0.00000488,-0.00011440,
 -0.00008507,-0.00087464,0.00139731,-0.00057023,0.01486892,-0.06814089,
 -0.06418273,-0.00343461,-0.00723968,-0.00339217,-0.00009475,-0.0000321
 7,0.00006175,-0.00045249,-0.00013335,0.00011694,-0.00330112,0.00835303
 ,0.00511639,0.00013567,0.00022467,0.00009933,-0.00022229,0.00022062,0.
 00024212,-0.00105135,-0.00104078,-0.00198589,0.00004830,-0.00026525,-0
 .00001455,0.00438356,-0.02145945,-0.01795840,0.00028370,0.00000298,-0.
 00026830,0.00004419,0.00006592,0.00024787,-0.01032833,0.08816171,0.082
 57301\\0.00001215,-0.00006683,0.00001836,-0.00009597,0.00017217,-0.000
 12865,-0.00005180,-0.00020774,-0.00009780,0.00012186,0.00001070,0.0000
 5433,-0.00001352,0.00007405,0.00002131,-0.00001834,-0.00003399,-0.0000
 1877,0.00012463,0.00003000,0.00019099,-0.00009883,-0.00004315,-0.00006
 860,-0.00002702,0.00001286,-0.00012425,0.00000009,0.00001866,0.0001325
 4,-0.00001412,0.00002618,-0.00003097,0.00000206,0.00007025,0.00000341,
 0.00003522,-0.00006882,0.00001195,0.00001486,-0.00003694,0.00002232,0.
 00000872,0.00004262,0.00001382\\\@


 IF GOD HAD MEANT MAN TO SEE THE SUN RISE, HE
 WOULD HAVE SCHEDULED IT FOR A LATER HOUR.
 Job cpu time:       0 days  0 hours  0 minutes 12.2 seconds.
 File lengths (MBytes):  RWF=     32 Int=      0 D2E=      0 Chk=      7 Scr=      1
 Normal termination of Gaussian 09 at Sun Sep  6 18:32:56 2020.
