 Entering Gaussian System, Link 0=g09
 Input=TS_associated_cycloaddition_PM6_toluene_3.com
 Output=TS_associated_cycloaddition_PM6_toluene_3.log
 Initial command:
 /apps/applications/gaussian/G09.D01/2/default/g09/l1.exe "/local/725901.1.40core-192G.q/Gau-319361.inp" -scrdir="/local/725901.1.40core-192G.q/"
 Entering Link 1 = /apps/applications/gaussian/G09.D01/2/default/g09/l1.exe PID=    319362.
  
 Copyright (c) 1988,1990,1992,1993,1995,1998,2003,2009,2013,
            Gaussian, Inc.  All Rights Reserved.
  
 This is part of the Gaussian(R) 09 program.  It is based on
 the Gaussian(R) 03 system (copyright 2003, Gaussian, Inc.),
 the Gaussian(R) 98 system (copyright 1998, Gaussian, Inc.),
 the Gaussian(R) 94 system (copyright 1995, Gaussian, Inc.),
 the Gaussian 92(TM) system (copyright 1992, Gaussian, Inc.),
 the Gaussian 90(TM) system (copyright 1990, Gaussian, Inc.),
 the Gaussian 88(TM) system (copyright 1988, Gaussian, Inc.),
 the Gaussian 86(TM) system (copyright 1986, Carnegie Mellon
 University), and the Gaussian 82(TM) system (copyright 1983,
 Carnegie Mellon University). Gaussian is a federally registered
 trademark of Gaussian, Inc.
  
 This software contains proprietary and confidential information,
 including trade secrets, belonging to Gaussian, Inc.
  
 This software is provided under written license and may be
 used, copied, transmitted, or stored only in accord with that
 written license.
  
 The following legend is applicable only to US Government
 contracts under FAR:
  
                    RESTRICTED RIGHTS LEGEND
  
 Use, reproduction and disclosure by the US Government is
 subject to restrictions as set forth in subparagraphs (a)
 and (c) of the Commercial Computer Software - Restricted
 Rights clause in FAR 52.227-19.
  
 Gaussian, Inc.
 340 Quinnipiac St., Bldg. 40, Wallingford CT 06492
  
  
 ---------------------------------------------------------------
 Warning -- This program may not be used in any manner that
 competes with the business of Gaussian, Inc. or will provide
 assistance to any competitor of Gaussian, Inc.  The licensee
 of this program is prohibited from giving any competitor of
 Gaussian, Inc. access to this program.  By using this program,
 the user acknowledges that Gaussian, Inc. is engaged in the
 business of creating and licensing software in the field of
 computational chemistry and represents and warrants to the
 licensee that it is not a competitor of Gaussian, Inc. and that
 it will not use this program in any manner prohibited above.
 ---------------------------------------------------------------
  

 Cite this work as:
 Gaussian 09, Revision D.01,
 M. J. Frisch, G. W. Trucks, H. B. Schlegel, G. E. Scuseria, 
 M. A. Robb, J. R. Cheeseman, G. Scalmani, V. Barone, B. Mennucci, 
 G. A. Petersson, H. Nakatsuji, M. Caricato, X. Li, H. P. Hratchian, 
 A. F. Izmaylov, J. Bloino, G. Zheng, J. L. Sonnenberg, M. Hada, 
 M. Ehara, K. Toyota, R. Fukuda, J. Hasegawa, M. Ishida, T. Nakajima, 
 Y. Honda, O. Kitao, H. Nakai, T. Vreven, J. A. Montgomery, Jr., 
 J. E. Peralta, F. Ogliaro, M. Bearpark, J. J. Heyd, E. Brothers, 
 K. N. Kudin, V. N. Staroverov, T. Keith, R. Kobayashi, J. Normand, 
 K. Raghavachari, A. Rendell, J. C. Burant, S. S. Iyengar, J. Tomasi, 
 M. Cossi, N. Rega, J. M. Millam, M. Klene, J. E. Knox, J. B. Cross, 
 V. Bakken, C. Adamo, J. Jaramillo, R. Gomperts, R. E. Stratmann, 
 O. Yazyev, A. J. Austin, R. Cammi, C. Pomelli, J. W. Ochterski, 
 R. L. Martin, K. Morokuma, V. G. Zakrzewski, G. A. Voth, 
 P. Salvador, J. J. Dannenberg, S. Dapprich, A. D. Daniels, 
 O. Farkas, J. B. Foresman, J. V. Ortiz, J. Cioslowski, 
 and D. J. Fox, Gaussian, Inc., Wallingford CT, 2013.
 
 ******************************************
 Gaussian 09:  ES64L-G09RevD.01 24-Apr-2013
                 7-Sep-2020 
 ******************************************
 %nprocshared=4
 Will use up to    4 processors via shared memory.
 %chk=TS_associated_cycloaddition_PM6_toluene_3.chk
 ----------------------------------------------------------------------
 # opt=(calcfc,qst3) pm6 scrf=(cpcm,solvent=toluene) geom=connectivity 
 empiricaldispersion=gd3
 ----------------------------------------------------------------------
 1/5=1,10=4,14=-1,18=20,26=1,27=203,38=1,57=2/1,3;
 2/9=110,12=2,17=6,18=5,40=1/2;
 3/5=2,16=1,25=1,41=3900000,70=2101,71=2,72=13,124=31,140=1/1,2,3;
 4/35=1/1;
 5/5=2,35=1,38=5,53=13/2;
 8/6=4,10=90,11=11/1;
 11/6=1,8=1,9=11,15=111,16=1/1,2,10;
 10/6=1,13=1/2;
 6/7=2,8=2,9=2,10=2,28=1/1;
 7/10=1,18=20,25=1/1,2,3,16;
 1/5=1,10=4,14=-1,18=20,26=1,27=203/3(2);
 2/9=110/2;
 99//99;
 2/9=110/2;
 3/5=2,16=1,25=1,41=3900000,70=2105,71=1,72=13,124=31,135=20/1,2,3;
 4/5=5,16=3,35=1/1;
 5/5=2,35=1,38=5,53=13/2;
 7//1,2,3,16;
 1/5=1,14=-1,18=20,26=1,27=203/3(-5);
 2/9=110/2;
 6/7=2,8=2,9=2,10=2,19=2,28=1/1;
 99/9=1/99;
 -------------------
 Title Card Required
 -------------------
 Symbolic Z-matrix:
 Charge =  0 Multiplicity = 1
 C                    -1.93173  -0.07423  -0.70548 
 C                    -1.75268  -0.28713   0.81057 
 C                    -2.42626  -2.37242  -0.01901 
 C                    -2.3766   -1.45123  -1.25363 
 H                    -1.47797   0.69593  -1.29112 
 H                    -2.27096  -1.75412  -2.27137 
 C                    -1.56202  -1.7778    1.09581 
 H                    -1.91271  -2.06389   2.09861 
 H                    -0.50372  -2.08521   1.01016 
 C                    -3.15975  -0.04791   0.23049 
 H                    -3.83189   0.7382    0.49105 
 C                    -3.60521  -1.4261   -0.31773 
 H                    -4.62201  -1.7053   -0.48125 
 H                    -1.25401   0.44328   1.43312 
 H                    -2.51166  -3.44608  -0.10385 
 N                     1.66883   0.28542   0.45985 
 N                     1.46086   1.121    -0.435 
 C                     2.20756  -1.04456   0.13142 
 C                     0.93204   2.45588  -0.10636 
 O                     1.58647   3.46475  -0.14116 
 O                     1.57647  -2.06557   0.21665 
 O                    -0.41252   2.34256   0.06245 
 O                     3.54117  -0.91487  -0.10549 
 C                     4.30539  -2.15491  -0.227 
 H                     5.31024  -1.77539  -0.45574 
 H                     4.28254  -2.69481   0.72474 
 H                     3.90553  -2.76058  -1.0464 
 C                    -1.17284   3.58525   0.17148 
 H                    -2.19911   3.20435   0.26862 
 H                    -0.85644   4.13364   1.06402 
 H                    -1.04578   4.18097  -0.73757 
 
 Add virtual bond connecting atoms O21        and H9         Dist= 4.21D+00.
 Add virtual bond connecting atoms O22        and H5         Dist= 4.50D+00.
 -------------------
 Title Card Required
 -------------------
 Symbolic Z-matrix:
 Charge =  0 Multiplicity = 1
 C                     0.55642   0.74362  -0.47977 
 C                     1.02381   1.88266   0.55528 
 C                    -1.2873    2.12723   0.39557 
 C                    -0.83261   1.38044  -0.79452 
 H                     1.23698   0.73824  -1.37174 
 H                    -1.48141   0.92031  -1.54455 
 C                    -0.21842   2.01248   1.4891 
 H                    -0.16913   2.86849   2.17739 
 H                    -0.3772    1.10791   2.12491 
 C                     0.80638   3.08508  -0.33951 
 H                     1.5362    3.85761  -0.55449 
 C                    -0.50682   2.96596  -0.81985 
 H                    -1.02709   3.64691  -1.48127 
 H                     1.99582   1.71933   1.03105 
 H                    -2.31735   2.38407   0.62791 
 N                    -0.51029  -0.91428   0.97793 
 N                     0.43641  -0.64384  -0.01 
 C                    -1.75451  -1.28963   0.57041 
 C                     1.63255  -1.39235   0.13401 
 O                     1.7737   -2.54214   0.47572 
 O                    -2.68774  -1.61227   1.29729 
 O                     2.69808  -0.62064  -0.34007 
 O                    -1.9917   -1.18889  -0.82868 
 C                    -3.26383  -1.67413  -1.30556 
 H                    -3.30648  -1.31143  -2.33596 
 H                    -3.2655   -2.76779  -1.26517 
 H                    -4.07944  -1.27053  -0.69755 
 C                     3.958    -1.3234   -0.51275 
 H                     4.65254  -0.51211  -0.75429 
 H                     4.23491  -1.83296   0.41646 
 H                     3.86366  -2.03738  -1.33678 
 
 -------------------
 Title Card Required
 -------------------
 Symbolic Z-matrix:
 Charge =  0 Multiplicity = 1
 C                    -0.42504   0.93594   0.87652 
 C                    -0.9258    1.69484  -0.43532 
 C                     1.40526   1.99677  -0.39584 
 C                     1.08453   1.29052   0.93655 
 H                    -0.98208   0.68072   1.78311 
 H                     1.77633   0.75365   1.55617 
 C                     0.26904   1.75926  -1.39658 
 H                     0.16508   2.58991  -2.1157 
 H                     0.4069    0.841    -1.99456 
 C                    -0.6649    2.61632   0.7 
 H                    -1.37955   3.19587   1.24833 
 C                     0.84933   2.80438   0.79203 
 H                     1.31922   3.63152   1.28356 
 H                    -1.91917   1.49222  -0.83293 
 H                     2.41628   2.10662  -0.7645 
 N                     0.18246  -1.24911  -0.57067 
 N                    -0.45986  -0.81703   0.43881 
 C                     1.62288  -1.17925  -0.62596 
 C                    -1.89326  -1.234     0.39582 
 O                    -2.3459   -2.03663   1.16839 
 O                     2.25215  -0.8468   -1.60138 
 O                    -2.59914  -0.52935  -0.53221 
 O                     2.17616  -1.69298   0.51914 
 C                     3.6232   -1.84818   0.54196 
 H                     3.79356  -2.29471   1.52929 
 H                     3.93861  -2.51852  -0.2636 
 H                     4.09823  -0.86663   0.45269 
 C                    -4.03067  -0.79964  -0.6222 
 H                    -4.33928  -0.13187  -1.43612 
 H                    -4.19112  -1.85136  -0.8803 
 H                    -4.51482  -0.54104   0.32418 
 

 GradGradGradGradGradGradGradGradGradGradGradGradGradGradGradGradGradGrad
 Berny optimization.
 Initialization pass.
                           ----------------------------
                           !    Initial Parameters    !
                           ! (Angstroms and Degrees)  !
 --------------------------                            --------------------------
 ! Name  Definition        TS        Reactant  Product Derivative Info.         !
 --------------------------------------------------------------------------------
 ! R1    R(1,2)             1.5961    1.5414    1.6085 calculate D2E/DX2 analyti!
 ! R2    R(1,4)             1.5518    1.5474    1.5601 calculate D2E/DX2 analyti!
 ! R3    R(1,5)             1.0942    1.0686    1.122  calculate D2E/DX2 analyti!
 ! R4    R(1,10)            1.7066    1.5443    2.3589 calculate D2E/DX2 analyti!
 ! R5    R(1,17)            1.8071    3.6071    1.4697 calculate D2E/DX2 analyti!
 ! R6    R(2,7)             1.5349    1.5296    1.5595 calculate D2E/DX2 analyti!
 ! R7    R(2,10)            1.4853    1.5406    1.5145 calculate D2E/DX2 analyti!
 ! R8    R(2,14)            1.089     1.0815    1.0945 calculate D2E/DX2 analyti!
 ! R9    R(3,4)             1.5417    1.5412    1.4767 calculate D2E/DX2 analyti!
 ! R10   R(3,7)             1.5326    1.5308    1.5335 calculate D2E/DX2 analyti!
 ! R11   R(3,12)            1.5402    1.541     1.6703 calculate D2E/DX2 analyti!
 ! R12   R(3,15)            1.0817    1.0804    1.0867 calculate D2E/DX2 analyti!
 ! R13   R(4,6)             1.0727    1.0671    1.0933 calculate D2E/DX2 analyti!
 ! R14   R(4,12)            1.5388    1.5447    1.6188 calculate D2E/DX2 analyti!
 ! R15   R(5,22)            3.0724    2.383     2.2463 calculate D2E/DX2 analyti!
 ! R16   R(7,8)             1.1036    1.1002    1.0995 calculate D2E/DX2 analyti!
 ! R17   R(7,9)             1.1044    1.1054    1.117  calculate D2E/DX2 analyti!
 ! R18   R(9,21)            2.5314    2.2265    3.6637 calculate D2E/DX2 analyti!
 ! R19   R(10,11)           1.0711    1.0666    1.0843 calculate D2E/DX2 analyti!
 ! R20   R(10,12)           1.5286    1.5487    1.4034 calculate D2E/DX2 analyti!
 ! R21   R(12,13)           1.0708    1.067     1.0825 calculate D2E/DX2 analyti!
 ! R22   R(16,17)           1.2721    1.2419    1.3948 calculate D2E/DX2 analyti!
 ! R23   R(16,18)           1.4432    1.4721    1.362  calculate D2E/DX2 analyti!
 ! R24   R(17,19)           1.4934    1.4729    1.4184 calculate D2E/DX2 analyti!
 ! R25   R(18,21)           1.2074    1.2033    1.2261 calculate D2E/DX2 analyti!
 ! R26   R(18,23)           1.3716    1.3607    1.4226 calculate D2E/DX2 analyti!
 ! R27   R(19,20)           1.2025    1.203     1.2078 calculate D2E/DX2 analyti!
 ! R28   R(19,22)           1.3624    1.3598    1.3984 calculate D2E/DX2 analyti!
 ! R29   R(22,28)           1.4596    1.4609    1.453  calculate D2E/DX2 analyti!
 ! R30   R(23,24)           1.4555    1.4617    1.4426 calculate D2E/DX2 analyti!
 ! R31   R(24,25)           1.0969    1.0982    1.0932 calculate D2E/DX2 analyti!
 ! R32   R(24,26)           1.0944    1.0945    1.0944 calculate D2E/DX2 analyti!
 ! R33   R(24,27)           1.0941    1.0946    1.0944 calculate D2E/DX2 analyti!
 ! R34   R(28,29)           1.0971    1.099     1.095  calculate D2E/DX2 analyti!
 ! R35   R(28,30)           1.0947    1.0943    1.0953 calculate D2E/DX2 analyti!
 ! R36   R(28,31)           1.094     1.0943    1.0944 calculate D2E/DX2 analyti!
 ! A1    A(2,1,4)         103.1999  105.0044   95.7095 calculate D2E/DX2 analyti!
 ! A2    A(2,1,5)         129.2077  126.1033  109.799  calculate D2E/DX2 analyti!
 ! A3    A(2,1,17)        104.8384   82.1119  119.1145 calculate D2E/DX2 analyti!
 ! A4    A(4,1,5)         121.0956  124.6986  112.4335 calculate D2E/DX2 analyti!
 ! A5    A(4,1,10)         85.1669   90.0715   72.6132 calculate D2E/DX2 analyti!
 ! A6    A(4,1,17)        104.4631  126.286   112.1553 calculate D2E/DX2 analyti!
 ! A7    A(5,1,10)        104.1118  131.1112   89.2983 calculate D2E/DX2 analyti!
 ! A8    A(5,1,17)         87.9716   53.3403  107.4042 calculate D2E/DX2 analyti!
 ! A9    A(1,2,7)         106.8855  109.4207  102.2873 calculate D2E/DX2 analyti!
 ! A10   A(1,2,10)         67.1472   60.1405   98.0669 calculate D2E/DX2 analyti!
 ! A11   A(1,2,14)        119.8546  121.7645  115.6028 calculate D2E/DX2 analyti!
 ! A12   A(7,2,10)        108.417   109.5953   99.9813 calculate D2E/DX2 analyti!
 ! A13   A(7,2,14)        119.2914  119.5595  117.3585 calculate D2E/DX2 analyti!
 ! A14   A(10,2,14)       123.6925  122.2057  120.1861 calculate D2E/DX2 analyti!
 ! A15   A(4,3,7)         109.8212  109.4528  108.7976 calculate D2E/DX2 analyti!
 ! A16   A(4,3,15)        122.3767  122.2504  125.7092 calculate D2E/DX2 analyti!
 ! A17   A(7,3,12)        108.4966  109.5466  103.3427 calculate D2E/DX2 analyti!
 ! A18   A(7,3,15)        119.0854  119.1983  121.7299 calculate D2E/DX2 analyti!
 ! A19   A(12,3,15)       123.1569  122.3148  118.6727 calculate D2E/DX2 analyti!
 ! A20   A(1,4,3)         105.8792  104.9145  108.54   calculate D2E/DX2 analyti!
 ! A21   A(1,4,6)         122.3664  124.1923  119.6692 calculate D2E/DX2 analyti!
 ! A22   A(1,4,12)         94.1554   89.9753  102.9302 calculate D2E/DX2 analyti!
 ! A23   A(3,4,6)         126.4619  126.6947  125.6611 calculate D2E/DX2 analyti!
 ! A24   A(3,4,12)         59.9986   59.9165   65.1197 calculate D2E/DX2 analyti!
 ! A25   A(6,4,12)        130.1781  131.3929  121.3936 calculate D2E/DX2 analyti!
 ! A26   A(1,5,22)         74.6597  112.1199   91.8518 calculate D2E/DX2 analyti!
 ! A27   A(2,7,3)         100.0609   99.9252   97.7268 calculate D2E/DX2 analyti!
 ! A28   A(2,7,8)         111.4914  112.5594  113.8257 calculate D2E/DX2 analyti!
 ! A29   A(2,7,9)         113.6636  112.0803  112.747  calculate D2E/DX2 analyti!
 ! A30   A(3,7,8)         112.2518  112.5086  114.7962 calculate D2E/DX2 analyti!
 ! A31   A(3,7,9)         112.9442  112.0913  111.5568 calculate D2E/DX2 analyti!
 ! A32   A(8,7,9)         106.5436  107.6676  106.2911 calculate D2E/DX2 analyti!
 ! A33   A(7,9,21)        124.1414  156.8784  124.2164 calculate D2E/DX2 analyti!
 ! A34   A(1,10,11)       125.0021  131.4329  140.0618 calculate D2E/DX2 analyti!
 ! A35   A(1,10,12)        88.6066   89.9436   78.2432 calculate D2E/DX2 analyti!
 ! A36   A(2,10,11)       127.5741  126.727   125.8859 calculate D2E/DX2 analyti!
 ! A37   A(2,10,12)       107.238   104.9398  105.615  calculate D2E/DX2 analyti!
 ! A38   A(11,10,12)      124.3001  124.1321  128.4964 calculate D2E/DX2 analyti!
 ! A39   A(3,12,10)       104.2763  104.9398  103.3449 calculate D2E/DX2 analyti!
 ! A40   A(3,12,13)       126.9178  126.7314  122.4054 calculate D2E/DX2 analyti!
 ! A41   A(4,12,10)        92.0648   90.0096  105.432  calculate D2E/DX2 analyti!
 ! A42   A(4,12,13)       130.523   131.3635  121.9334 calculate D2E/DX2 analyti!
 ! A43   A(10,12,13)      123.8741  124.1387  127.2626 calculate D2E/DX2 analyti!
 ! A44   A(17,16,18)      121.1925  120.5596  117.4876 calculate D2E/DX2 analyti!
 ! A45   A(1,17,16)       120.7935   89.3459  117.7014 calculate D2E/DX2 analyti!
 ! A46   A(1,17,19)       107.2357   88.817   117.502  calculate D2E/DX2 analyti!
 ! A47   A(16,17,19)      111.5273  120.6065  113.463  calculate D2E/DX2 analyti!
 ! A48   A(16,18,21)      124.3636  123.9765  126.1887 calculate D2E/DX2 analyti!
 ! A49   A(16,18,23)      110.6396  108.1448  115.2807 calculate D2E/DX2 analyti!
 ! A50   A(21,18,23)      124.5643  127.3893  118.3433 calculate D2E/DX2 analyti!
 ! A51   A(17,19,20)      121.9482  123.9342  129.0263 calculate D2E/DX2 analyti!
 ! A52   A(17,19,22)      111.8695  107.8882  108.4765 calculate D2E/DX2 analyti!
 ! A53   A(20,19,22)      126.0053  127.6865  122.1554 calculate D2E/DX2 analyti!
 ! A54   A(9,21,18)        85.9376  121.5153   57.2171 calculate D2E/DX2 analyti!
 ! A55   A(5,22,19)        54.3865  115.4136   89.6522 calculate D2E/DX2 analyti!
 ! A56   A(5,22,28)       129.4636  113.4207  143.3268 calculate D2E/DX2 analyti!
 ! A57   A(19,22,28)      117.0249  116.9342  115.7272 calculate D2E/DX2 analyti!
 ! A58   A(18,23,24)      117.0044  116.4905  116.6343 calculate D2E/DX2 analyti!
 ! A59   A(23,24,25)      102.235   101.6849  103.5546 calculate D2E/DX2 analyti!
 ! A60   A(23,24,26)      109.8938  109.5902  108.9823 calculate D2E/DX2 analyti!
 ! A61   A(23,24,27)      109.5547  109.9174  110.4553 calculate D2E/DX2 analyti!
 ! A62   A(25,24,26)      111.6187  111.759   111.4862 calculate D2E/DX2 analyti!
 ! A63   A(25,24,27)      111.7907  111.688   111.8517 calculate D2E/DX2 analyti!
 ! A64   A(26,24,27)      111.3651  111.7393  110.2969 calculate D2E/DX2 analyti!
 ! A65   A(22,28,29)      102.0589  101.407   102.5844 calculate D2E/DX2 analyti!
 ! A66   A(22,28,30)      109.6447  109.6748  110.085  calculate D2E/DX2 analyti!
 ! A67   A(22,28,31)      109.6893  109.9167  109.2862 calculate D2E/DX2 analyti!
 ! A68   A(29,28,30)      111.6299  111.8145  111.8061 calculate D2E/DX2 analyti!
 ! A69   A(29,28,31)      111.9254  111.7499  111.8372 calculate D2E/DX2 analyti!
 ! A70   A(30,28,31)      111.4792  111.7891  110.9188 calculate D2E/DX2 analyti!
 ! D1    D(4,1,2,7)        29.7317   20.8336   48.5542 calculate D2E/DX2 analyti!
 ! D2    D(4,1,2,10)      -73.5865  -81.1505  -53.57   calculate D2E/DX2 analyti!
 ! D3    D(4,1,2,14)      169.5283  167.2973  177.3029 calculate D2E/DX2 analyti!
 ! D4    D(5,1,2,7)      -179.1092 -136.8216  164.8882 calculate D2E/DX2 analyti!
 ! D5    D(5,1,2,10)       77.5726  121.1943   62.7639 calculate D2E/DX2 analyti!
 ! D6    D(5,1,2,14)      -39.3126    9.6422  -66.3631 calculate D2E/DX2 analyti!
 ! D7    D(17,1,2,7)      -79.3867 -104.7171  -70.753  calculate D2E/DX2 analyti!
 ! D8    D(17,1,2,10)     177.295   153.2988 -172.8772 calculate D2E/DX2 analyti!
 ! D9    D(17,1,2,14)      60.4099   41.7467   57.9957 calculate D2E/DX2 analyti!
 ! D10   D(2,1,4,3)        -8.8377   -0.0014  -29.7741 calculate D2E/DX2 analyti!
 ! D11   D(2,1,4,6)      -164.5934 -158.2129  176.2337 calculate D2E/DX2 analyti!
 ! D12   D(2,1,4,12)       51.1252   58.7433   37.9973 calculate D2E/DX2 analyti!
 ! D13   D(5,1,4,3)      -162.9571  158.06   -143.9511 calculate D2E/DX2 analyti!
 ! D14   D(5,1,4,6)        41.2872   -0.1515   62.0566 calculate D2E/DX2 analyti!
 ! D15   D(5,1,4,12)     -102.9942 -143.1953  -76.1797 calculate D2E/DX2 analyti!
 ! D16   D(10,1,4,3)      -59.3803  -58.751   -62.1819 calculate D2E/DX2 analyti!
 ! D17   D(10,1,4,6)      144.8639  143.0374  143.8258 calculate D2E/DX2 analyti!
 ! D18   D(10,1,4,12)       0.5825   -0.0064    5.5895 calculate D2E/DX2 analyti!
 ! D19   D(17,1,4,3)      100.5616   91.1745   94.8838 calculate D2E/DX2 analyti!
 ! D20   D(17,1,4,6)      -55.1942  -67.037   -59.1085 calculate D2E/DX2 analyti!
 ! D21   D(17,1,4,12)     160.5244  149.9192  162.6552 calculate D2E/DX2 analyti!
 ! D22   D(2,1,5,22)       54.87    -10.0295   85.908  calculate D2E/DX2 analyti!
 ! D23   D(4,1,5,22)     -158.3901 -163.5005 -168.8427 calculate D2E/DX2 analyti!
 ! D24   D(10,1,5,22)     108.7338   69.1794  120.327  calculate D2E/DX2 analyti!
 ! D25   D(4,1,10,11)    -132.7393 -138.3711 -144.31   calculate D2E/DX2 analyti!
 ! D26   D(4,1,10,12)      -0.5851    0.0063   -6.4222 calculate D2E/DX2 analyti!
 ! D27   D(5,1,10,11)     -11.8633    0.7979  -30.4973 calculate D2E/DX2 analyti!
 ! D28   D(5,1,10,12)     120.2909  139.1753  107.3904 calculate D2E/DX2 analyti!
 ! D29   D(2,1,17,16)      56.0777   33.8384   63.3099 calculate D2E/DX2 analyti!
 ! D30   D(2,1,17,19)     -73.1306  -86.7932  -77.9816 calculate D2E/DX2 analyti!
 ! D31   D(4,1,17,16)     -52.1197  -69.0189  -47.1603 calculate D2E/DX2 analyti!
 ! D32   D(4,1,17,19)     178.672   170.3495  171.5482 calculate D2E/DX2 analyti!
 ! D33   D(5,1,17,16)    -173.759  -178.5245 -171.1773 calculate D2E/DX2 analyti!
 ! D34   D(5,1,17,19)      57.0327   60.8439   47.5312 calculate D2E/DX2 analyti!
 ! D35   D(1,2,7,3)       -37.6153  -32.2645  -48.8552 calculate D2E/DX2 analyti!
 ! D36   D(1,2,7,8)      -156.5091 -151.8376 -170.3606 calculate D2E/DX2 analyti!
 ! D37   D(1,2,7,9)        83.0497   86.617    68.4641 calculate D2E/DX2 analyti!
 ! D38   D(10,2,7,3)       33.3163   31.9594   51.7568 calculate D2E/DX2 analyti!
 ! D39   D(10,2,7,8)      -85.5775  -87.6137  -69.7486 calculate D2E/DX2 analyti!
 ! D40   D(10,2,7,9)      153.9813  150.8408  169.0761 calculate D2E/DX2 analyti!
 ! D41   D(14,2,7,3)     -177.6808 -179.5809 -176.4922 calculate D2E/DX2 analyti!
 ! D42   D(14,2,7,8)       63.4254   60.846    62.0025 calculate D2E/DX2 analyti!
 ! D43   D(14,2,7,9)      -57.0157  -60.6994  -59.1729 calculate D2E/DX2 analyti!
 ! D44   D(1,2,10,11)    -112.7693 -121.482  -127.6767 calculate D2E/DX2 analyti!
 ! D45   D(1,2,10,12)      77.7542   81.053    51.7727 calculate D2E/DX2 analyti!
 ! D46   D(7,2,10,11)     146.1681  136.829   128.2486 calculate D2E/DX2 analyti!
 ! D47   D(7,2,10,12)     -23.3084  -20.6359  -52.302  calculate D2E/DX2 analyti!
 ! D48   D(14,2,10,11)     -1.1602  -10.6403   -1.7068 calculate D2E/DX2 analyti!
 ! D49   D(14,2,10,12)   -170.6367 -168.1052  177.7426 calculate D2E/DX2 analyti!
 ! D50   D(7,3,4,1)       -14.8518  -20.8192    0.6781 calculate D2E/DX2 analyti!
 ! D51   D(7,3,4,6)       139.6014  136.6671  152.7125 calculate D2E/DX2 analyti!
 ! D52   D(7,3,4,12)     -100.4212 -101.9134  -95.3274 calculate D2E/DX2 analyti!
 ! D53   D(15,3,4,1)     -162.0315 -167.393  -157.5784 calculate D2E/DX2 analyti!
 ! D54   D(15,3,4,6)       -7.5784   -9.9067   -5.5439 calculate D2E/DX2 analyti!
 ! D55   D(15,3,4,12)     112.3991  111.5128  106.4162 calculate D2E/DX2 analyti!
 ! D56   D(4,3,7,2)        32.4503   32.2819   29.8941 calculate D2E/DX2 analyti!
 ! D57   D(4,3,7,8)       150.7845  151.892   150.6739 calculate D2E/DX2 analyti!
 ! D58   D(4,3,7,9)       -88.732   -86.5915  -88.3451 calculate D2E/DX2 analyti!
 ! D59   D(12,3,7,2)      -31.3545  -31.9524  -34.2299 calculate D2E/DX2 analyti!
 ! D60   D(12,3,7,8)       86.9797   87.6578   86.5498 calculate D2E/DX2 analyti!
 ! D61   D(12,3,7,9)     -152.5368 -150.8257 -152.4691 calculate D2E/DX2 analyti!
 ! D62   D(15,3,7,2)     -179.1373 -179.9732 -170.8175 calculate D2E/DX2 analyti!
 ! D63   D(15,3,7,8)      -60.803   -60.3631  -50.0377 calculate D2E/DX2 analyti!
 ! D64   D(15,3,7,9)       59.6805   61.1534   70.9434 calculate D2E/DX2 analyti!
 ! D65   D(7,3,12,10)      18.6122   20.6302    4.9095 calculate D2E/DX2 analyti!
 ! D66   D(7,3,12,13)    -136.9676 -136.8639 -147.6663 calculate D2E/DX2 analyti!
 ! D67   D(15,3,12,10)    164.7971  167.466   143.1334 calculate D2E/DX2 analyti!
 ! D68   D(15,3,12,13)      9.2172    9.9719   -9.4425 calculate D2E/DX2 analyti!
 ! D69   D(1,4,12,10)      -0.6485    0.0063   -9.328  calculate D2E/DX2 analyti!
 ! D70   D(1,4,12,13)     139.2171  138.4135  146.4788 calculate D2E/DX2 analyti!
 ! D71   D(3,4,12,10)     105.3032  107.3255   95.3354 calculate D2E/DX2 analyti!
 ! D72   D(3,4,12,13)    -114.8313 -114.2674 -108.8577 calculate D2E/DX2 analyti!
 ! D73   D(6,4,12,10)    -140.4534 -138.4736 -146.6413 calculate D2E/DX2 analyti!
 ! D74   D(6,4,12,13)      -0.5879   -0.0665    9.1655 calculate D2E/DX2 analyti!
 ! D75   D(1,5,22,19)     109.9267  117.497    43.1771 calculate D2E/DX2 analyti!
 ! D76   D(1,5,22,28)    -152.3575 -103.7104  179.1217 calculate D2E/DX2 analyti!
 ! D77   D(2,7,9,21)     -106.6282  -33.2501  -96.6149 calculate D2E/DX2 analyti!
 ! D78   D(3,7,9,21)        6.4897   78.1815   12.1926 calculate D2E/DX2 analyti!
 ! D79   D(8,7,9,21)      130.1807 -157.5628  138.0133 calculate D2E/DX2 analyti!
 ! D80   D(7,9,21,18)      73.5515   51.3486   59.365  calculate D2E/DX2 analyti!
 ! D81   D(1,10,12,3)      60.2153   58.7593   61.2867 calculate D2E/DX2 analyti!
 ! D82   D(1,10,12,4)       0.5883   -0.0064    6.1263 calculate D2E/DX2 analyti!
 ! D83   D(1,10,12,13)   -143.2444 -142.9962 -147.9611 calculate D2E/DX2 analyti!
 ! D84   D(2,10,12,3)       2.8089   -0.0097   28.4867 calculate D2E/DX2 analyti!
 ! D85   D(2,10,12,4)     -56.8182  -58.7754  -26.6737 calculate D2E/DX2 analyti!
 ! D86   D(2,10,12,13)    159.3492  158.2348  179.2389 calculate D2E/DX2 analyti!
 ! D87   D(11,10,12,3)   -167.0994 -158.2266 -152.0832 calculate D2E/DX2 analyti!
 ! D88   D(11,10,12,4)    133.2735  143.0077  152.7563 calculate D2E/DX2 analyti!
 ! D89   D(11,10,12,13)   -10.5591    0.0179   -1.3311 calculate D2E/DX2 analyti!
 ! D90   D(18,16,17,1)     64.0061   92.2569   91.7914 calculate D2E/DX2 analyti!
 ! D91   D(18,16,17,19)  -168.7014 -179.5049 -125.4149 calculate D2E/DX2 analyti!
 ! D92   D(17,16,18,21)  -137.2263 -110.4917  177.0494 calculate D2E/DX2 analyti!
 ! D93   D(17,16,18,23)    50.038    77.02     -8.0387 calculate D2E/DX2 analyti!
 ! D94   D(1,17,19,20)   -114.9863 -164.3762 -178.4565 calculate D2E/DX2 analyti!
 ! D95   D(1,17,19,22)     60.4508    8.1208   -5.1617 calculate D2E/DX2 analyti!
 ! D96   D(16,17,19,20)   110.7     107.084    38.6707 calculate D2E/DX2 analyti!
 ! D97   D(16,17,19,22)   -73.863   -80.419  -148.0345 calculate D2E/DX2 analyti!
 ! D98   D(16,18,21,9)     37.946    -3.5432   38.8256 calculate D2E/DX2 analyti!
 ! D99   D(23,18,21,9)   -150.3158  167.4615 -135.9466 calculate D2E/DX2 analyti!
 ! D100  D(16,18,23,24)   172.4022  169.958   175.4368 calculate D2E/DX2 analyti!
 ! D101  D(21,18,23,24)    -0.3159   -2.1998   -9.228  calculate D2E/DX2 analyti!
 ! D102  D(17,19,22,5)    -56.1816  -32.5871  -15.8218 calculate D2E/DX2 analyti!
 ! D103  D(17,19,22,28)  -176.998  -169.8948 -168.3703 calculate D2E/DX2 analyti!
 ! D104  D(20,19,22,5)    119.0318  139.5444  158.0277 calculate D2E/DX2 analyti!
 ! D105  D(20,19,22,28)    -1.7847    2.2367    5.4792 calculate D2E/DX2 analyti!
 ! D106  D(5,22,28,29)    116.3082   40.3579   57.6733 calculate D2E/DX2 analyti!
 ! D107  D(5,22,28,30)   -125.236   158.7001  176.8093 calculate D2E/DX2 analyti!
 ! D108  D(5,22,28,31)     -2.5067  -78.0128  -61.1366 calculate D2E/DX2 analyti!
 ! D109  D(19,22,28,29)  -178.9558  178.4884 -172.8473 calculate D2E/DX2 analyti!
 ! D110  D(19,22,28,30)   -60.5001  -63.1694  -53.7113 calculate D2E/DX2 analyti!
 ! D111  D(19,22,28,31)    62.2293   60.1177   68.3428 calculate D2E/DX2 analyti!
 ! D112  D(18,23,24,25)  -178.2934  177.524   168.6147 calculate D2E/DX2 analyti!
 ! D113  D(18,23,24,26)   -59.6481  -64.0899  -72.6106 calculate D2E/DX2 analyti!
 ! D114  D(18,23,24,27)    63.0136   59.0787   48.7099 calculate D2E/DX2 analyti!
 --------------------------------------------------------------------------------
 Trust Radius=3.00D-01 FncErr=1.00D-07 GrdErr=1.00D-07
 Number of steps in this run=    186 maximum allowed number of steps=    186.
 Search for a saddle point of order  1.
 GradGradGradGradGradGradGradGradGradGradGradGradGradGradGradGradGradGrad

                          Input orientation:                          
 ---------------------------------------------------------------------
 Center     Atomic      Atomic             Coordinates (Angstroms)
 Number     Number       Type             X           Y           Z
 ---------------------------------------------------------------------
      1          6           0       -0.425036    0.935944    0.876522
      2          6           0       -0.925800    1.694839   -0.435324
      3          6           0        1.405263    1.996766   -0.395844
      4          6           0        1.084533    1.290516    0.936547
      5          1           0       -0.982084    0.680715    1.783106
      6          1           0        1.776325    0.753653    1.556167
      7          6           0        0.269037    1.759262   -1.396580
      8          1           0        0.165082    2.589909   -2.115704
      9          1           0        0.406902    0.840999   -1.994560
     10          6           0       -0.664900    2.616317    0.700003
     11          1           0       -1.379547    3.195874    1.248329
     12          6           0        0.849326    2.804382    0.792034
     13          1           0        1.319219    3.631524    1.283564
     14          1           0       -1.919168    1.492219   -0.832928
     15          1           0        2.416282    2.106619   -0.764500
     16          7           0        0.182463   -1.249113   -0.570669
     17          7           0       -0.459860   -0.817031    0.438813
     18          6           0        1.622882   -1.179246   -0.625964
     19          6           0       -1.893264   -1.234003    0.395819
     20          8           0       -2.345901   -2.036634    1.168389
     21          8           0        2.252149   -0.846803   -1.601376
     22          8           0       -2.599136   -0.529345   -0.532205
     23          8           0        2.176157   -1.692982    0.519137
     24          6           0        3.623204   -1.848179    0.541964
     25          1           0        3.793559   -2.294706    1.529285
     26          1           0        3.938608   -2.518523   -0.263601
     27          1           0        4.098233   -0.866631    0.452687
     28          6           0       -4.030669   -0.799639   -0.622203
     29          1           0       -4.339281   -0.131870   -1.436122
     30          1           0       -4.191120   -1.851358   -0.880303
     31          1           0       -4.514824   -0.541040    0.324178
 ---------------------------------------------------------------------
                    Distance matrix (angstroms):
                    1          2          3          4          5
     1  C    0.000000
     2  C    1.596128   0.000000
     3  C    2.468654   2.350866   0.000000
     4  C    1.551813   2.467174   1.541727   0.000000
     5  H    1.094230   2.439887   3.489877   2.315043   0.000000
     6  H    2.311090   3.486165   2.343793   1.072719   2.768689
     7  C    2.515270   1.534861   1.532609   2.515599   3.583151
     8  H    3.469475   2.194277   2.201769   3.442390   4.490182
     9  H    2.990693   2.221791   2.210976   3.041815   4.028118
    10  C    1.706560   1.485314   2.422870   2.207763   2.240597
    11  H    2.481253   2.300800   3.449106   3.130381   2.601920
    12  C    2.263227   2.426637   1.540248   1.538830   2.974264
    13  H    3.236396   3.427161   2.345261   2.378196   3.775290
    14  H    2.337540   1.089001   3.390789   3.491983   2.894875
    15  H    3.483751   3.383405   1.081727   2.309359   4.480222
    16  N    2.690333   3.148558   3.472972   3.087903   3.258936
    17  N    1.807131   2.700131   3.477469   2.659820   2.079203
    18  C    3.305369   3.846100   3.191765   2.971697   4.006110
    19  C    2.663726   3.194511   4.684536   3.941175   2.533961
    20  O    3.551215   4.302612   5.725939   4.784512   3.101912
    21  O    4.060232   4.233082   3.202563   3.517458   4.924256
    22  O    2.976289   2.785037   4.736564   4.363318   3.072420
    23  O    3.715532   4.691531   3.878880   3.204237   4.148077
    24  C    4.924583   5.848205   4.536777   4.056101   5.398557
    25  H    5.353479   6.484482   5.275112   4.532546   5.632435
    26  H    5.681075   6.437730   5.179108   4.908653   6.215894
    27  H    4.887625   5.708818   4.021335   3.737618   5.474844
    28  C    4.273057   3.987174   6.117228   5.741406   4.155819
    29  H    4.670103   3.998789   6.213940   6.088555   4.721705
    30  H    5.003886   4.841057   6.808984   6.403501   4.878837
    31  H    4.383256   4.296172   6.481228   5.923039   4.012656
                    6          7          8          9         10
     6  H    0.000000
     7  C    3.464373   0.000000
     8  H    4.410281   1.103594   0.000000
     9  H    3.806654   1.104443   1.769700   0.000000
    10  C    3.187807   2.449988   2.935604   3.400174   0.000000
    11  H    4.002341   3.431796   3.750972   4.387843   1.071106
    12  C    2.376703   2.493801   2.994850   3.437400   1.528633
    13  H    2.926670   3.433864   3.737916   4.400619   2.303892
    14  H    4.462054   2.275359   2.682263   2.680313   2.277424
    15  H    2.761441   2.265136   2.669686   2.674406   3.449383
    16  N    3.327897   3.120888   4.138300   2.538977   4.156222
    17  N    2.952296   3.246112   4.303876   3.069470   3.449368
    18  C    2.919133   3.325895   4.307091   2.726362   4.625844
    19  C    4.331636   4.104616   5.016656   3.912839   4.052946
    20  O    4.992877   5.275016   6.204450   5.085562   4.969417
    21  O    3.571827   3.281196   4.053563   2.531443   5.079244
    22  O    5.015181   3.769785   4.458488   3.612837   3.892916
    23  O    2.687251   4.384640   5.415715   3.983716   5.164724
    24  C    3.347999   5.293583   6.222414   4.900024   6.192297
    25  H    3.655468   6.116993   7.093043   5.806856   6.684588
    26  H    4.323674   5.748812   6.615577   5.172577   6.963289
    27  H    3.038790   4.997784   5.832150   4.746677   5.905889
    28  C    6.393684   5.063112   5.596777   4.926164   4.974473
    29  H    6.865754   4.981419   5.306524   4.876944   5.061288
    30  H    6.952184   5.761607   6.342520   5.443543   5.906921
    31  H    6.540075   5.580119   6.136561   5.613374   4.993202
                   11         12         13         14         15
    11  H    0.000000
    12  C    2.308538   0.000000
    13  H    2.733929   1.070778   0.000000
    14  H    2.743221   3.467972   4.420782   0.000000
    15  H    4.432412   2.316252   2.779109   4.379303   0.000000
    16  N    5.050400   4.328104   5.343315   3.464179   4.035896
    17  N    4.195777   3.866958   4.865015   3.013228   4.274095
    18  C    5.627542   4.298651   5.184787   4.441360   3.383132
    19  C    4.540318   4.897687   5.897584   2.990448   5.574790
    20  O    5.321595   5.812620   6.750880   4.079237   6.601590
    21  O    6.136226   4.585573   5.408202   4.843699   3.074086
    22  O    4.305224   4.975865   5.996945   2.153953   5.670686
    23  O    6.088979   4.696939   5.446931   5.361462   4.017755
    24  C    7.139253   5.422477   5.990448   6.615623   4.336351
    25  H    7.548936   5.934033   6.426736   7.249559   5.150728
    26  H    7.951292   6.244305   6.861341   7.122059   4.894927
    27  H    6.866081   4.913948   5.352259   6.589848   3.626392
    28  C    5.146986   6.229236   7.203364   3.123372   7.073172
    29  H    5.200018   6.364581   7.319730   2.976316   7.148394
    30  H    6.157156   7.062487   8.068962   4.042712   7.703035
    31  H    4.964730   6.339152   7.236489   3.494348   7.499036
                   16         17         18         19         20
    16  N    0.000000
    17  N    1.272135   0.000000
    18  C    1.443172   2.367016   0.000000
    19  C    2.289753   1.493439   3.662011   0.000000
    20  O    3.168144   2.361538   4.439150   1.202481   0.000000
    21  O    2.346872   3.393855   1.207445   4.617701   5.498123
    22  O    2.873471   2.366884   4.272774   1.362361   2.286497
    23  O    2.315062   2.778908   1.371603   4.097079   4.581335
    24  C    3.665451   4.212519   2.410978   5.552476   6.004843
    25  H    4.306168   4.632950   3.255947   5.894895   6.155470
    26  H    3.976722   4.768121   2.699548   6.007958   6.463580
    27  H    4.065317   4.558384   2.718194   6.003019   6.588475
    28  C    4.237353   3.725149   5.666282   2.406978   2.752239
    29  H    4.737448   4.362881   6.107433   3.248647   3.792778
    30  H    4.425698   4.090501   5.858246   2.699955   2.763385
    31  H    4.833904   4.065962   6.243518   2.712546   2.766536
                   21         22         23         24         25
    21  O    0.000000
    22  O    4.977838   0.000000
    23  O    2.284375   5.026211   0.000000
    24  C    2.734310   6.450634   1.455525   0.000000
    25  H    3.778016   6.944983   1.999615   1.096909   0.000000
    26  H    2.725515   6.838938   2.097720   1.094429   1.812615
    27  H    2.761810   6.777797   2.093239   1.094102   1.814191
    28  C    6.358837   1.459604   6.373806   7.812586   8.251222
    29  H    6.632148   2.000789   6.979330   8.382106   8.922701
    30  H    6.560853   2.098405   6.521176   7.942702   8.352112
    31  H    7.042242   2.098425   6.792217   8.245213   8.576529
                   26         27         28         29         30
    26  H    0.000000
    27  H    1.807566   0.000000
    28  C    8.160425   8.199934   0.000000
    29  H    8.694502   8.677506   1.097097   0.000000
    30  H    8.180337   8.453397   1.094748   1.813153   0.000000
    31  H    8.701519   8.620167   1.094037   1.815734   1.809003
                   31
    31  H    0.000000
 Stoichiometry    C11H14N2O4
 Framework group  C1[X(C11H14N2O4)]
 Deg. of freedom    87
 Full point group                 C1      NOp   1
 Largest Abelian subgroup         C1      NOp   1
 Largest concise Abelian subgroup C1      NOp   1
                         Standard orientation:                         
 ---------------------------------------------------------------------
 Center     Atomic      Atomic             Coordinates (Angstroms)
 Number     Number       Type             X           Y           Z
 ---------------------------------------------------------------------
      1          6           0        0.425036    0.935944   -0.876522
      2          6           0        0.925800    1.694839    0.435324
      3          6           0       -1.405263    1.996766    0.395844
      4          6           0       -1.084533    1.290516   -0.936547
      5          1           0        0.982084    0.680715   -1.783106
      6          1           0       -1.776325    0.753653   -1.556167
      7          6           0       -0.269037    1.759262    1.396580
      8          1           0       -0.165082    2.589909    2.115704
      9          1           0       -0.406902    0.840999    1.994560
     10          6           0        0.664900    2.616317   -0.700003
     11          1           0        1.379547    3.195874   -1.248329
     12          6           0       -0.849326    2.804382   -0.792034
     13          1           0       -1.319219    3.631524   -1.283564
     14          1           0        1.919168    1.492219    0.832928
     15          1           0       -2.416282    2.106619    0.764500
     16          7           0       -0.182463   -1.249113    0.570669
     17          7           0        0.459860   -0.817031   -0.438813
     18          6           0       -1.622882   -1.179246    0.625964
     19          6           0        1.893264   -1.234003   -0.395819
     20          8           0        2.345901   -2.036634   -1.168389
     21          8           0       -2.252149   -0.846803    1.601376
     22          8           0        2.599136   -0.529345    0.532205
     23          8           0       -2.176157   -1.692982   -0.519137
     24          6           0       -3.623204   -1.848179   -0.541964
     25          1           0       -3.793559   -2.294706   -1.529285
     26          1           0       -3.938608   -2.518523    0.263601
     27          1           0       -4.098233   -0.866631   -0.452687
     28          6           0        4.030669   -0.799639    0.622203
     29          1           0        4.339281   -0.131870    1.436122
     30          1           0        4.191120   -1.851358    0.880303
     31          1           0        4.514824   -0.541040   -0.324178
 ---------------------------------------------------------------------
 Rotational constants (GHZ):      0.6297251      0.4397157      0.3168507
 Standard basis: VSTO-6G (5D, 7F)
 There are    82 symmetry adapted cartesian basis functions of A   symmetry.
 There are    82 symmetry adapted basis functions of A   symmetry.
    82 basis functions,   492 primitive gaussians,    82 cartesian basis functions
    46 alpha electrons       46 beta electrons
       nuclear repulsion energy       738.5668227973 Hartrees.
 Integral buffers will be    131072 words long.
 Regular integral format.
 Two-electron integral symmetry is turned off.
 Nuclear repulsion after empirical dispersion term =      738.5559279862 Hartrees.
 Force inversion solution in PCM.
 ------------------------------------------------------------------------------
 Polarizable Continuum Model (PCM)
 =================================
 Model                : C-PCM.
 Atomic radii         : UFF (Universal Force Field).
 Polarization charges : Total charges.
 Charge compensation  : None.
 Solution method      : Matrix inversion.
 Cavity type          : Scaled VdW (van der Waals Surface) (Alpha=1.100).
 Cavity algorithm     : GePol (No added spheres)
                        Default sphere list used, NSphG=   31.
                        Lebedev-Laikov grids with approx.  5.0 points / Ang**2.
                        Smoothing algorithm: Karplus/York (Gamma=1.0000).
                        Polarization charges: spherical gaussians, with
                                              point-specific exponents (IZeta= 3).
                        Self-potential: point-specific (ISelfS= 7).
                        Self-field    : sphere-specific E.n sum rule (ISelfD= 2).
 1st derivatives      : Analytical E(r).r(x)/FMM algorithm (CHGder, D1EAlg=3).
                        Cavity 1st derivative terms included.
 2nd derivatives      : Analytical E(r).r(xy)/FMM algorithm (CHGder, D2EAlg=3).
                        Cavity 2nd derivative terms included.
 Solvent              : Toluene, Eps=   2.374100 Eps(inf)=   2.238315
 ------------------------------------------------------------------------------
 Do NDO integrals.
 One-electron integrals computed using PRISM.
 NBasis=    82 RedAO= F EigKep=  0.00D+00  NBF=    82
 NBsUse=    82 1.00D-04 EigRej=  0.00D+00 NBFU=    82
 Simple Huckel Guess.
 Overlap will be assumed to be unity.
 Keep J ints in memory in canonical form, NReq=9041665.
 Requested convergence on RMS density matrix=1.00D-08 within 128 cycles.
 Requested convergence on MAX density matrix=1.00D-06.
 Requested convergence on             energy=1.00D-06.
 No special actions if energy rises.
 Inv3:  Mode=1 IEnd=    15939075.
 Iteration    1 A*A^-1 deviation from unit magnitude is 5.44D-15 for   2303.
 Iteration    1 A*A^-1 deviation from orthogonality  is 4.63D-15 for   2286   2267.
 Iteration    1 A^-1*A deviation from unit magnitude is 5.44D-15 for   2303.
 Iteration    1 A^-1*A deviation from orthogonality  is 4.07D-15 for   2304   2217.
 Error on total polarization charges = -0.00022
 SCF Done:  E(RPM6D3) = -0.224735450272E-01 A.U. after   18 cycles
            NFock= 17  Conv=0.99D-08     -V/T= 0.9996
 Range of M.O.s used for correlation:     1    82
 NBasis=    82 NAE=    46 NBE=    46 NFC=     0 NFV=     0
 NROrb=     82 NOA=    46 NOB=    46 NVA=    36 NVB=    36
 Symmetrizing basis deriv contribution to polar:
 IMax=3 JMax=2 DiffMx= 0.00D+00
 G2DrvN: will do    32 centers at a time, making    1 passes.
 Calling FoFCou, ICntrl=  3107 FMM=F I1Cent=   0 AccDes= 0.00D+00.
 NEqPCM:  Using equilibrium solvation (IEInf=0, Eps=   2.3741, EpsInf=   2.2383)
 G2PCM: DoFxE=T DoFxN=T DoGrad=T DoDP/DQ/DG/TGxP=FFFF NFrqRd=   0 IEInf=0 SqF1=F DoCFld=F IF1Alg=4.
 End of G2Drv F.D. properties file   721 does not exist.
 End of G2Drv F.D. properties file   722 does not exist.
 End of G2Drv F.D. properties file   788 does not exist.
          IDoAtm=1111111111111111111111111111111
 NEqPCM:  Using equilibrium solvation (IEInf=0, Eps=   2.3741, EpsInf=   2.2383)
          Differentiating once with respect to nuclear coordinates.
          Electric field/nuclear overlap derivatives assumed to be zero.
 Keep J ints in memory in canonical form, NReq=13133188.
          There are    96 degrees of freedom in the 1st order CPHF.  IDoFFX=5 NUNeed=    96.
 LinEq1:  Iter=  0 NonCon=    93 RMS=1.12D-02 Max=1.72D-01 NDo=    93
 AX will form    96 AO Fock derivatives at one time.
 LinEq1:  Iter=  1 NonCon=    93 RMS=1.86D-03 Max=2.98D-02 NDo=    96
 LinEq1:  Iter=  2 NonCon=    93 RMS=4.69D-04 Max=1.24D-02 NDo=    96
 LinEq1:  Iter=  3 NonCon=    93 RMS=1.01D-04 Max=2.32D-03 NDo=    96
 LinEq1:  Iter=  4 NonCon=    93 RMS=2.25D-05 Max=3.80D-04 NDo=    96
 LinEq1:  Iter=  5 NonCon=    93 RMS=4.79D-06 Max=7.29D-05 NDo=    96
 LinEq1:  Iter=  6 NonCon=    93 RMS=9.90D-07 Max=1.66D-05 NDo=    96
 LinEq1:  Iter=  7 NonCon=    78 RMS=1.98D-07 Max=3.03D-06 NDo=    96
 LinEq1:  Iter=  8 NonCon=    38 RMS=4.36D-08 Max=5.63D-07 NDo=    96
 LinEq1:  Iter=  9 NonCon=     1 RMS=8.46D-09 Max=1.04D-07 NDo=    96
 LinEq1:  Iter= 10 NonCon=     0 RMS=9.73D-10 Max=1.78D-08 NDo=    96
 Linear equations converged to 1.000D-08 1.000D-07 after    10 iterations.
 End of Minotr F.D. properties file   721 does not exist.
 End of Minotr F.D. properties file   722 does not exist.
 End of Minotr F.D. properties file   788 does not exist.

 **********************************************************************

            Population analysis using the SCF density.

 **********************************************************************

 Orbital symmetries:
       Occupied  (A) (A) (A) (A) (A) (A) (A) (A) (A) (A) (A) (A)
                 (A) (A) (A) (A) (A) (A) (A) (A) (A) (A) (A) (A)
                 (A) (A) (A) (A) (A) (A) (A) (A) (A) (A) (A) (A)
                 (A) (A) (A) (A) (A) (A) (A) (A) (A) (A)
       Virtual   (A) (A) (A) (A) (A) (A) (A) (A) (A) (A) (A) (A)
                 (A) (A) (A) (A) (A) (A) (A) (A) (A) (A) (A) (A)
                 (A) (A) (A) (A) (A) (A) (A) (A) (A) (A) (A) (A)
 The electronic state is 1-A.
 Alpha  occ. eigenvalues --   -1.27632  -1.22892  -1.20843  -1.19243  -1.15278
 Alpha  occ. eigenvalues --   -1.13425  -1.03307  -0.98518  -0.95714  -0.95027
 Alpha  occ. eigenvalues --   -0.91410  -0.85547  -0.81822  -0.75708  -0.74714
 Alpha  occ. eigenvalues --   -0.72749  -0.71349  -0.69287  -0.67761  -0.64219
 Alpha  occ. eigenvalues --   -0.63777  -0.62927  -0.61699  -0.60577  -0.57864
 Alpha  occ. eigenvalues --   -0.56210  -0.55939  -0.55096  -0.54039  -0.53429
 Alpha  occ. eigenvalues --   -0.53142  -0.51795  -0.50676  -0.49834  -0.49109
 Alpha  occ. eigenvalues --   -0.47823  -0.47398  -0.44869  -0.44503  -0.44048
 Alpha  occ. eigenvalues --   -0.43485  -0.42735  -0.42455  -0.41326  -0.38131
 Alpha  occ. eigenvalues --   -0.32042
 Alpha virt. eigenvalues --   -0.06048  -0.00781   0.00265   0.01683   0.03531
 Alpha virt. eigenvalues --    0.05180   0.06953   0.08440   0.08710   0.09813
 Alpha virt. eigenvalues --    0.10068   0.11129   0.11344   0.11533   0.12083
 Alpha virt. eigenvalues --    0.12678   0.14029   0.14769   0.15491   0.15773
 Alpha virt. eigenvalues --    0.15976   0.16884   0.18088   0.18156   0.18795
 Alpha virt. eigenvalues --    0.18960   0.19593   0.19766   0.19867   0.20238
 Alpha virt. eigenvalues --    0.20313   0.20430   0.21207   0.21238   0.21420
 Alpha virt. eigenvalues --    0.22213
          Condensed to atoms (all electrons):
               1          2          3          4          5          6
     1  C    4.206448   0.000000   0.000000   0.000000   0.000000   0.000000
     2  C    0.000000   4.038887   0.000000   0.000000   0.000000   0.000000
     3  C    0.000000   0.000000   4.120830   0.000000   0.000000   0.000000
     4  C    0.000000   0.000000   0.000000   4.170766   0.000000   0.000000
     5  H    0.000000   0.000000   0.000000   0.000000   0.811925   0.000000
     6  H    0.000000   0.000000   0.000000   0.000000   0.000000   0.826112
     7  C    0.000000   0.000000   0.000000   0.000000   0.000000   0.000000
     8  H    0.000000   0.000000   0.000000   0.000000   0.000000   0.000000
     9  H    0.000000   0.000000   0.000000   0.000000   0.000000   0.000000
    10  C    0.000000   0.000000   0.000000   0.000000   0.000000   0.000000
    11  H    0.000000   0.000000   0.000000   0.000000   0.000000   0.000000
    12  C    0.000000   0.000000   0.000000   0.000000   0.000000   0.000000
    13  H    0.000000   0.000000   0.000000   0.000000   0.000000   0.000000
    14  H    0.000000   0.000000   0.000000   0.000000   0.000000   0.000000
    15  H    0.000000   0.000000   0.000000   0.000000   0.000000   0.000000
    16  N    0.000000   0.000000   0.000000   0.000000   0.000000   0.000000
    17  N    0.000000   0.000000   0.000000   0.000000   0.000000   0.000000
    18  C    0.000000   0.000000   0.000000   0.000000   0.000000   0.000000
    19  C    0.000000   0.000000   0.000000   0.000000   0.000000   0.000000
    20  O    0.000000   0.000000   0.000000   0.000000   0.000000   0.000000
    21  O    0.000000   0.000000   0.000000   0.000000   0.000000   0.000000
    22  O    0.000000   0.000000   0.000000   0.000000   0.000000   0.000000
    23  O    0.000000   0.000000   0.000000   0.000000   0.000000   0.000000
    24  C    0.000000   0.000000   0.000000   0.000000   0.000000   0.000000
    25  H    0.000000   0.000000   0.000000   0.000000   0.000000   0.000000
    26  H    0.000000   0.000000   0.000000   0.000000   0.000000   0.000000
    27  H    0.000000   0.000000   0.000000   0.000000   0.000000   0.000000
    28  C    0.000000   0.000000   0.000000   0.000000   0.000000   0.000000
    29  H    0.000000   0.000000   0.000000   0.000000   0.000000   0.000000
    30  H    0.000000   0.000000   0.000000   0.000000   0.000000   0.000000
    31  H    0.000000   0.000000   0.000000   0.000000   0.000000   0.000000
               7          8          9         10         11         12
     1  C    0.000000   0.000000   0.000000   0.000000   0.000000   0.000000
     2  C    0.000000   0.000000   0.000000   0.000000   0.000000   0.000000
     3  C    0.000000   0.000000   0.000000   0.000000   0.000000   0.000000
     4  C    0.000000   0.000000   0.000000   0.000000   0.000000   0.000000
     5  H    0.000000   0.000000   0.000000   0.000000   0.000000   0.000000
     6  H    0.000000   0.000000   0.000000   0.000000   0.000000   0.000000
     7  C    4.279766   0.000000   0.000000   0.000000   0.000000   0.000000
     8  H    0.000000   0.836670   0.000000   0.000000   0.000000   0.000000
     9  H    0.000000   0.000000   0.824227   0.000000   0.000000   0.000000
    10  C    0.000000   0.000000   0.000000   4.138896   0.000000   0.000000
    11  H    0.000000   0.000000   0.000000   0.000000   0.830783   0.000000
    12  C    0.000000   0.000000   0.000000   0.000000   0.000000   4.184849
    13  H    0.000000   0.000000   0.000000   0.000000   0.000000   0.000000
    14  H    0.000000   0.000000   0.000000   0.000000   0.000000   0.000000
    15  H    0.000000   0.000000   0.000000   0.000000   0.000000   0.000000
    16  N    0.000000   0.000000   0.000000   0.000000   0.000000   0.000000
    17  N    0.000000   0.000000   0.000000   0.000000   0.000000   0.000000
    18  C    0.000000   0.000000   0.000000   0.000000   0.000000   0.000000
    19  C    0.000000   0.000000   0.000000   0.000000   0.000000   0.000000
    20  O    0.000000   0.000000   0.000000   0.000000   0.000000   0.000000
    21  O    0.000000   0.000000   0.000000   0.000000   0.000000   0.000000
    22  O    0.000000   0.000000   0.000000   0.000000   0.000000   0.000000
    23  O    0.000000   0.000000   0.000000   0.000000   0.000000   0.000000
    24  C    0.000000   0.000000   0.000000   0.000000   0.000000   0.000000
    25  H    0.000000   0.000000   0.000000   0.000000   0.000000   0.000000
    26  H    0.000000   0.000000   0.000000   0.000000   0.000000   0.000000
    27  H    0.000000   0.000000   0.000000   0.000000   0.000000   0.000000
    28  C    0.000000   0.000000   0.000000   0.000000   0.000000   0.000000
    29  H    0.000000   0.000000   0.000000   0.000000   0.000000   0.000000
    30  H    0.000000   0.000000   0.000000   0.000000   0.000000   0.000000
    31  H    0.000000   0.000000   0.000000   0.000000   0.000000   0.000000
              13         14         15         16         17         18
     1  C    0.000000   0.000000   0.000000   0.000000   0.000000   0.000000
     2  C    0.000000   0.000000   0.000000   0.000000   0.000000   0.000000
     3  C    0.000000   0.000000   0.000000   0.000000   0.000000   0.000000
     4  C    0.000000   0.000000   0.000000   0.000000   0.000000   0.000000
     5  H    0.000000   0.000000   0.000000   0.000000   0.000000   0.000000
     6  H    0.000000   0.000000   0.000000   0.000000   0.000000   0.000000
     7  C    0.000000   0.000000   0.000000   0.000000   0.000000   0.000000
     8  H    0.000000   0.000000   0.000000   0.000000   0.000000   0.000000
     9  H    0.000000   0.000000   0.000000   0.000000   0.000000   0.000000
    10  C    0.000000   0.000000   0.000000   0.000000   0.000000   0.000000
    11  H    0.000000   0.000000   0.000000   0.000000   0.000000   0.000000
    12  C    0.000000   0.000000   0.000000   0.000000   0.000000   0.000000
    13  H    0.829328   0.000000   0.000000   0.000000   0.000000   0.000000
    14  H    0.000000   0.823317   0.000000   0.000000   0.000000   0.000000
    15  H    0.000000   0.000000   0.835672   0.000000   0.000000   0.000000
    16  N    0.000000   0.000000   0.000000   5.343821   0.000000   0.000000
    17  N    0.000000   0.000000   0.000000   0.000000   5.032147   0.000000
    18  C    0.000000   0.000000   0.000000   0.000000   0.000000   3.290466
    19  C    0.000000   0.000000   0.000000   0.000000   0.000000   0.000000
    20  O    0.000000   0.000000   0.000000   0.000000   0.000000   0.000000
    21  O    0.000000   0.000000   0.000000   0.000000   0.000000   0.000000
    22  O    0.000000   0.000000   0.000000   0.000000   0.000000   0.000000
    23  O    0.000000   0.000000   0.000000   0.000000   0.000000   0.000000
    24  C    0.000000   0.000000   0.000000   0.000000   0.000000   0.000000
    25  H    0.000000   0.000000   0.000000   0.000000   0.000000   0.000000
    26  H    0.000000   0.000000   0.000000   0.000000   0.000000   0.000000
    27  H    0.000000   0.000000   0.000000   0.000000   0.000000   0.000000
    28  C    0.000000   0.000000   0.000000   0.000000   0.000000   0.000000
    29  H    0.000000   0.000000   0.000000   0.000000   0.000000   0.000000
    30  H    0.000000   0.000000   0.000000   0.000000   0.000000   0.000000
    31  H    0.000000   0.000000   0.000000   0.000000   0.000000   0.000000
              19         20         21         22         23         24
     1  C    0.000000   0.000000   0.000000   0.000000   0.000000   0.000000
     2  C    0.000000   0.000000   0.000000   0.000000   0.000000   0.000000
     3  C    0.000000   0.000000   0.000000   0.000000   0.000000   0.000000
     4  C    0.000000   0.000000   0.000000   0.000000   0.000000   0.000000
     5  H    0.000000   0.000000   0.000000   0.000000   0.000000   0.000000
     6  H    0.000000   0.000000   0.000000   0.000000   0.000000   0.000000
     7  C    0.000000   0.000000   0.000000   0.000000   0.000000   0.000000
     8  H    0.000000   0.000000   0.000000   0.000000   0.000000   0.000000
     9  H    0.000000   0.000000   0.000000   0.000000   0.000000   0.000000
    10  C    0.000000   0.000000   0.000000   0.000000   0.000000   0.000000
    11  H    0.000000   0.000000   0.000000   0.000000   0.000000   0.000000
    12  C    0.000000   0.000000   0.000000   0.000000   0.000000   0.000000
    13  H    0.000000   0.000000   0.000000   0.000000   0.000000   0.000000
    14  H    0.000000   0.000000   0.000000   0.000000   0.000000   0.000000
    15  H    0.000000   0.000000   0.000000   0.000000   0.000000   0.000000
    16  N    0.000000   0.000000   0.000000   0.000000   0.000000   0.000000
    17  N    0.000000   0.000000   0.000000   0.000000   0.000000   0.000000
    18  C    0.000000   0.000000   0.000000   0.000000   0.000000   0.000000
    19  C    3.337474   0.000000   0.000000   0.000000   0.000000   0.000000
    20  O    0.000000   6.476579   0.000000   0.000000   0.000000   0.000000
    21  O    0.000000   0.000000   6.515562   0.000000   0.000000   0.000000
    22  O    0.000000   0.000000   0.000000   6.416662   0.000000   0.000000
    23  O    0.000000   0.000000   0.000000   0.000000   6.427360   0.000000
    24  C    0.000000   0.000000   0.000000   0.000000   0.000000   4.177277
    25  H    0.000000   0.000000   0.000000   0.000000   0.000000   0.000000
    26  H    0.000000   0.000000   0.000000   0.000000   0.000000   0.000000
    27  H    0.000000   0.000000   0.000000   0.000000   0.000000   0.000000
    28  C    0.000000   0.000000   0.000000   0.000000   0.000000   0.000000
    29  H    0.000000   0.000000   0.000000   0.000000   0.000000   0.000000
    30  H    0.000000   0.000000   0.000000   0.000000   0.000000   0.000000
    31  H    0.000000   0.000000   0.000000   0.000000   0.000000   0.000000
              25         26         27         28         29         30
     1  C    0.000000   0.000000   0.000000   0.000000   0.000000   0.000000
     2  C    0.000000   0.000000   0.000000   0.000000   0.000000   0.000000
     3  C    0.000000   0.000000   0.000000   0.000000   0.000000   0.000000
     4  C    0.000000   0.000000   0.000000   0.000000   0.000000   0.000000
     5  H    0.000000   0.000000   0.000000   0.000000   0.000000   0.000000
     6  H    0.000000   0.000000   0.000000   0.000000   0.000000   0.000000
     7  C    0.000000   0.000000   0.000000   0.000000   0.000000   0.000000
     8  H    0.000000   0.000000   0.000000   0.000000   0.000000   0.000000
     9  H    0.000000   0.000000   0.000000   0.000000   0.000000   0.000000
    10  C    0.000000   0.000000   0.000000   0.000000   0.000000   0.000000
    11  H    0.000000   0.000000   0.000000   0.000000   0.000000   0.000000
    12  C    0.000000   0.000000   0.000000   0.000000   0.000000   0.000000
    13  H    0.000000   0.000000   0.000000   0.000000   0.000000   0.000000
    14  H    0.000000   0.000000   0.000000   0.000000   0.000000   0.000000
    15  H    0.000000   0.000000   0.000000   0.000000   0.000000   0.000000
    16  N    0.000000   0.000000   0.000000   0.000000   0.000000   0.000000
    17  N    0.000000   0.000000   0.000000   0.000000   0.000000   0.000000
    18  C    0.000000   0.000000   0.000000   0.000000   0.000000   0.000000
    19  C    0.000000   0.000000   0.000000   0.000000   0.000000   0.000000
    20  O    0.000000   0.000000   0.000000   0.000000   0.000000   0.000000
    21  O    0.000000   0.000000   0.000000   0.000000   0.000000   0.000000
    22  O    0.000000   0.000000   0.000000   0.000000   0.000000   0.000000
    23  O    0.000000   0.000000   0.000000   0.000000   0.000000   0.000000
    24  C    0.000000   0.000000   0.000000   0.000000   0.000000   0.000000
    25  H    0.832589   0.000000   0.000000   0.000000   0.000000   0.000000
    26  H    0.000000   0.846080   0.000000   0.000000   0.000000   0.000000
    27  H    0.000000   0.000000   0.849381   0.000000   0.000000   0.000000
    28  C    0.000000   0.000000   0.000000   4.179826   0.000000   0.000000
    29  H    0.000000   0.000000   0.000000   0.000000   0.829711   0.000000
    30  H    0.000000   0.000000   0.000000   0.000000   0.000000   0.841556
    31  H    0.000000   0.000000   0.000000   0.000000   0.000000   0.000000
              31
     1  C    0.000000
     2  C    0.000000
     3  C    0.000000
     4  C    0.000000
     5  H    0.000000
     6  H    0.000000
     7  C    0.000000
     8  H    0.000000
     9  H    0.000000
    10  C    0.000000
    11  H    0.000000
    12  C    0.000000
    13  H    0.000000
    14  H    0.000000
    15  H    0.000000
    16  N    0.000000
    17  N    0.000000
    18  C    0.000000
    19  C    0.000000
    20  O    0.000000
    21  O    0.000000
    22  O    0.000000
    23  O    0.000000
    24  C    0.000000
    25  H    0.000000
    26  H    0.000000
    27  H    0.000000
    28  C    0.000000
    29  H    0.000000
    30  H    0.000000
    31  H    0.845033
 Mulliken charges:
               1
     1  C   -0.206448
     2  C   -0.038887
     3  C   -0.120830
     4  C   -0.170766
     5  H    0.188075
     6  H    0.173888
     7  C   -0.279766
     8  H    0.163330
     9  H    0.175773
    10  C   -0.138896
    11  H    0.169217
    12  C   -0.184849
    13  H    0.170672
    14  H    0.176683
    15  H    0.164328
    16  N   -0.343821
    17  N   -0.032147
    18  C    0.709534
    19  C    0.662526
    20  O   -0.476579
    21  O   -0.515562
    22  O   -0.416662
    23  O   -0.427360
    24  C   -0.177277
    25  H    0.167411
    26  H    0.153920
    27  H    0.150619
    28  C   -0.179826
    29  H    0.170289
    30  H    0.158444
    31  H    0.154967
 Sum of Mulliken charges =   0.00000
 Mulliken charges with hydrogens summed into heavy atoms:
               1
     1  C   -0.018373
     2  C    0.137796
     3  C    0.043498
     4  C    0.003123
     7  C    0.059337
    10  C    0.030321
    12  C   -0.014177
    16  N   -0.343821
    17  N   -0.032147
    18  C    0.709534
    19  C    0.662526
    20  O   -0.476579
    21  O   -0.515562
    22  O   -0.416662
    23  O   -0.427360
    24  C    0.294672
    28  C    0.303874
 APT charges:
               1
     1  C   -0.206448
     2  C   -0.038887
     3  C   -0.120830
     4  C   -0.170766
     5  H    0.188075
     6  H    0.173888
     7  C   -0.279766
     8  H    0.163330
     9  H    0.175773
    10  C   -0.138896
    11  H    0.169217
    12  C   -0.184849
    13  H    0.170672
    14  H    0.176683
    15  H    0.164328
    16  N   -0.343821
    17  N   -0.032147
    18  C    0.709534
    19  C    0.662526
    20  O   -0.476579
    21  O   -0.515562
    22  O   -0.416662
    23  O   -0.427360
    24  C   -0.177277
    25  H    0.167411
    26  H    0.153920
    27  H    0.150619
    28  C   -0.179826
    29  H    0.170289
    30  H    0.158444
    31  H    0.154967
 Sum of APT charges =   0.00000
 APT charges with hydrogens summed into heavy atoms:
               1
     1  C   -0.018373
     2  C    0.137796
     3  C    0.043498
     4  C    0.003123
     7  C    0.059337
    10  C    0.030321
    12  C   -0.014177
    16  N   -0.343821
    17  N   -0.032147
    18  C    0.709534
    19  C    0.662526
    20  O   -0.476579
    21  O   -0.515562
    22  O   -0.416662
    23  O   -0.427360
    24  C    0.294672
    28  C    0.303874
 Charge=              0.0000 electrons
 Dipole moment (field-independent basis, Debye):
    X=              1.4253    Y=              4.4241    Z=             -1.1504  Tot=              4.7883
 N-N= 7.385559279862D+02 E-N=-1.354707842031D+03  KE=-5.959494323852D+01
  Exact polarizability:   0.000   0.000   0.000   0.000   0.000   0.000
 Approx polarizability: 101.373  10.272 121.149 -11.098   1.931  92.162
 D2PCM: C-PCM CHGder 2nd derivatives, FixD1E=F FixD2E=F DoIter=F DoCFld=F I1PDM=0
 Calling FoFJK, ICntrl=    100147 FMM=F ISym2X=0 I1Cent= 0 IOpClX= 0 NMat=1 NMatS=1 NMatT=0.
 ***** Axes restored to original set *****
 -------------------------------------------------------------------
 Center     Atomic                   Forces (Hartrees/Bohr)
 Number     Number              X              Y              Z
 -------------------------------------------------------------------
      1        6           0.000501567    0.024250824    0.006102092
      2        6           0.000000665    0.000004058    0.000007842
      3        6           0.000006925   -0.000005970    0.000005728
      4        6          -0.000004313   -0.000012989    0.000000336
      5        1           0.000003286   -0.000002503   -0.000000501
      6        1          -0.000000074   -0.000000224    0.000002046
      7        6           0.000001959    0.000009489   -0.000004245
      8        1           0.000002101   -0.000004558    0.000005211
      9        1           0.000004303    0.000006613    0.000001037
     10        6          -0.000001250    0.000003965    0.000000968
     11        1          -0.000002632   -0.000001434    0.000007086
     12        6          -0.000002658    0.000004315    0.000011096
     13        1           0.000001093   -0.000002933    0.000003777
     14        1           0.000000132   -0.000002536   -0.000005237
     15        1          -0.000001000    0.000000527    0.000004261
     16        7           0.000041706   -0.000046692    0.000053236
     17        7          -0.000564014   -0.024164171   -0.006216558
     18        6           0.000001264   -0.000002936    0.000003599
     19        6           0.000014007   -0.000037383    0.000040684
     20        8          -0.000002709    0.000003021   -0.000005338
     21        8          -0.000001475    0.000000404    0.000006016
     22        8           0.000005349   -0.000001462    0.000009650
     23        8           0.000003151    0.000002357   -0.000008656
     24        6          -0.000006081    0.000000301    0.000004773
     25        1          -0.000002857   -0.000004547   -0.000000154
     26        1           0.000000904   -0.000002191   -0.000002517
     27        1          -0.000000102   -0.000002836    0.000000481
     28        6           0.000001754    0.000001727   -0.000004326
     29        1          -0.000000032    0.000004289   -0.000007788
     30        1          -0.000001112    0.000003399   -0.000008071
     31        1           0.000000140    0.000000076   -0.000006529
 -------------------------------------------------------------------
 Cartesian Forces:  Max     0.024250824 RMS     0.003663936
 FormGI is forming the generalized inverse of G from B-inverse, IUseBI=4.

 GradGradGradGradGradGradGradGradGradGradGradGradGradGradGradGradGradGrad
 Berny optimization.
 Internal  Forces:  Max     0.020501715 RMS     0.001526235
 Search for a saddle point.
 Step number   1 out of a maximum of  186
 All quantities printed in internal units (Hartrees-Bohrs-Radians)
 Second derivative matrix not updated -- analytic derivatives used.
 ITU=  0
 LST/QST climbing along tangent vector
     Eigenvalues ---   -0.00992  -0.00705   0.00031   0.00052   0.00071
     Eigenvalues ---    0.00328   0.00645   0.00682   0.00806   0.00857
     Eigenvalues ---    0.01013   0.01160   0.01232   0.01292   0.01315
     Eigenvalues ---    0.01426   0.01698   0.01855   0.02449   0.02530
     Eigenvalues ---    0.02655   0.02770   0.02936   0.03021   0.03344
     Eigenvalues ---    0.03454   0.03760   0.03879   0.04119   0.04220
     Eigenvalues ---    0.04437   0.04466   0.04525   0.04602   0.04796
     Eigenvalues ---    0.04964   0.05935   0.05962   0.06002   0.07844
     Eigenvalues ---    0.09099   0.09923   0.10091   0.10338   0.11116
     Eigenvalues ---    0.11375   0.12439   0.12621   0.13105   0.13566
     Eigenvalues ---    0.14105   0.14339   0.14531   0.14656   0.14706
     Eigenvalues ---    0.15579   0.16042   0.17649   0.20195   0.21196
     Eigenvalues ---    0.22308   0.24155   0.24619   0.25551   0.25589
     Eigenvalues ---    0.25759   0.25810   0.25851   0.26107   0.26893
     Eigenvalues ---    0.27338   0.27546   0.27963   0.28227   0.28343
     Eigenvalues ---    0.29408   0.30196   0.31691   0.34616   0.34898
     Eigenvalues ---    0.39817   0.41887   0.44705   0.49522   0.73840
     Eigenvalues ---    0.87192   0.915671000.000001000.000001000.00000
     Eigenvalues --- 1000.000001000.000001000.000001000.000001000.00000
     Eigenvalues --- 1000.000001000.000001000.000001000.000001000.00000
     Eigenvalues --- 1000.000001000.000001000.000001000.000001000.00000
     Eigenvalues --- 1000.000001000.000001000.000001000.000001000.00000
     Eigenvalues --- 1000.000001000.000001000.000001000.000001000.00000
     Eigenvalues --- 1000.000001000.000001000.000001000.000001000.00000
     Eigenvalues --- 1000.000001000.000001000.000001000.000001000.00000
     Eigenvalues --- 1000.000001000.000001000.000001000.000001000.00000
     Eigenvalues --- 1000.000001000.000001000.000001000.000001000.00000
     Eigenvalues --- 1000.000001000.000001000.000001000.000001000.00000
     Eigenvalues --- 1000.000001000.000001000.000001000.000001000.00000
     Eigenvalues --- 1000.000001000.000001000.000001000.000001000.00000
     Eigenvalues --- 1000.000001000.000001000.000001000.000001000.00000
     Eigenvalues --- 1000.000001000.000001000.000001000.000001000.00000
     Eigenvalues --- 1000.000001000.000001000.000001000.000001000.00000
     Eigenvalues --- 1000.000001000.000001000.000001000.000001000.00000
     Eigenvalues --- 1000.000001000.000001000.000001000.000001000.00000
     Eigenvalues --- 1000.000001000.000001000.000001000.000001000.00000
     Eigenvalues --- 1000.000001000.000001000.000001000.000001000.00000
     Eigenvalues --- 1000.000001000.000001000.000001000.000001000.00000
     Eigenvalues --- 1000.000001000.000001000.000001000.000001000.00000
     Eigenvalues --- 1000.000001000.000001000.000001000.000001000.00000
     Eigenvalues --- 1000.000001000.000001000.000001000.000001000.00000
     Eigenvalues --- 1000.000001000.000001000.000001000.000001000.00000
     Eigenvalues --- 1000.000001000.000001000.000001000.000001000.00000
     Eigenvalues --- 1000.000001000.000001000.000001000.000001000.00000
 Eigenvectors required to have negative eigenvalues:
                          R18       R5        D97       D96       D23
   1                    0.51795   0.43596  -0.17899  -0.16914   0.16153
                          D6        R4        D5        R1        A55
   1                    0.14669  -0.14614   0.13619  -0.12809   0.12519
 QST in optimization variable space.
 Eigenvectors 1 and   2 swapped, overlap=  1.0000
                        Tangent   TS vect  // Eig F  Eigenval
   1         R1         0.00628  -0.00628   0.01159  -0.00705
   2         R2        -0.00282   0.00282   0.00546  -0.00992
   3         R3         0.01086  -0.01086   0.00000   0.00031
   4         R4         0.21646  -0.21646   0.00007   0.00052
   5         R5        -0.46408   0.46408   0.00012   0.00071
   6         R6         0.00050  -0.00050   0.00025   0.00328
   7         R7        -0.00605   0.00605  -0.00061   0.00645
   8         R8         0.00300  -0.00300  -0.00012   0.00682
   9         R9        -0.03157   0.03157   0.00001   0.00806
  10         R10       -0.00481   0.00481   0.00026   0.00857
  11         R11        0.03651  -0.03651   0.00023   0.01013
  12         R12        0.00158  -0.00158  -0.00051   0.01160
  13         R13        0.00655  -0.00655  -0.00033   0.01232
  14         R14        0.01694  -0.01694   0.00037   0.01292
  15         R15       -0.06235   0.06235  -0.00029   0.01315
  16         R16       -0.00035   0.00035   0.00084   0.01426
  17         R17       -0.00445   0.00445  -0.00152   0.01698
  18         R18        0.36048  -0.36048  -0.00267   0.01855
  19         R19        0.00439  -0.00439  -0.00075   0.02449
  20         R20       -0.03212   0.03212  -0.00029   0.02530
  21         R21        0.00385  -0.00385   0.00074   0.02655
  22         R22        0.05232  -0.05232  -0.00037   0.02770
  23         R23       -0.02241   0.02241  -0.00282   0.02936
  24         R24       -0.02255   0.02255  -0.00040   0.03021
  25         R25        0.02101  -0.02101   0.00093   0.03344
  26         R26        0.01563  -0.01563  -0.00160   0.03454
  27         R27        0.00126  -0.00126  -0.00151   0.03760
  28         R28       -0.00079   0.00079  -0.00083   0.03879
  29         R29       -0.00201   0.00201  -0.00051   0.04119
  30         R30       -0.00467   0.00467   0.00168   0.04220
  31         R31       -0.00124   0.00124   0.00009   0.04437
  32         R32       -0.00001   0.00001   0.00023   0.04466
  33         R33       -0.00002   0.00002  -0.00007   0.04525
  34         R34       -0.00096   0.00096  -0.00037   0.04602
  35         R35        0.00025  -0.00025  -0.00045   0.04796
  36         R36        0.00005  -0.00005   0.00358   0.04964
  37         A1        -0.00936   0.00936  -0.00001   0.05935
  38         A2        -0.05353   0.05353   0.00015   0.05962
  39         A3         0.08566  -0.08566  -0.00210   0.06002
  40         A4        -0.02670   0.02670  -0.00010   0.07844
  41         A5        -0.03870   0.03870   0.00108   0.09099
  42         A6        -0.04757   0.04757  -0.00113   0.09923
  43         A7        -0.08297   0.08297   0.00028   0.10091
  44         A8         0.11902  -0.11902   0.00061   0.10338
  45         A9        -0.02734   0.02734   0.00033   0.11116
  46         A10        0.08920  -0.08920   0.00020   0.11375
  47         A11       -0.00989   0.00989  -0.00152   0.12439
  48         A12       -0.02459   0.02459  -0.00017   0.12621
  49         A13        0.00079  -0.00079   0.00037   0.13105
  50         A14        0.00212  -0.00212  -0.00121   0.13566
  51         A15       -0.00417   0.00417  -0.00026   0.14105
  52         A16        0.00627  -0.00627   0.00194   0.14339
  53         A17       -0.01440   0.01440   0.00051   0.14531
  54         A18        0.00995  -0.00995  -0.00098   0.14656
  55         A19       -0.00824   0.00824   0.00016   0.14706
  56         A20        0.00854  -0.00854  -0.00079   0.15579
  57         A21       -0.00848   0.00848  -0.00013   0.16042
  58         A22        0.03109  -0.03109   0.00058   0.17649
  59         A23       -0.00683   0.00683   0.00042   0.20195
  60         A24        0.01741  -0.01741  -0.00026   0.21196
  61         A25       -0.02514   0.02514   0.00000   0.22308
  62         A26       -0.04607   0.04607   0.00117   0.24155
  63         A27        0.00605  -0.00605   0.00013   0.24619
  64         A28        0.00596  -0.00596   0.00000   0.25551
  65         A29       -0.02004   0.02004  -0.00031   0.25589
  66         A30        0.00059  -0.00059   0.00000   0.25759
  67         A31       -0.00558   0.00558   0.00011   0.25810
  68         A32        0.01200  -0.01200   0.00032   0.25851
  69         A33       -0.08699   0.08699   0.00006   0.26107
  70         A34        0.03013  -0.03013   0.00001   0.26893
  71         A35       -0.03051   0.03051   0.00000   0.27338
  72         A36       -0.01601   0.01601  -0.00003   0.27546
  73         A37        0.01443  -0.01443   0.00010   0.27963
  74         A38        0.01007  -0.01007  -0.00012   0.28227
  75         A39       -0.00461   0.00461  -0.00009   0.28343
  76         A40       -0.00354   0.00354  -0.00037   0.29408
  77         A41        0.03783  -0.03783  -0.00006   0.30196
  78         A42       -0.01573   0.01573  -0.00056   0.31691
  79         A43        0.00379  -0.00379   0.00018   0.34616
  80         A44        0.00664  -0.00664   0.00029   0.34898
  81         A45        0.03873  -0.03873  -0.00058   0.39817
  82         A46        0.08453  -0.08453  -0.00002   0.41887
  83         A47       -0.03895   0.03895  -0.00039   0.44705
  84         A48        0.00512  -0.00512  -0.00016   0.49522
  85         A49        0.01831  -0.01831   0.00088   0.73840
  86         A50       -0.01865   0.01865  -0.00004   0.87192
  87         A51        0.01059  -0.01059  -0.00007   0.91567
  88         A52        0.00396  -0.00396   0.000001000.00000
  89         A53       -0.01387   0.01387   0.000001000.00000
  90         A54       -0.15121   0.15121   0.000001000.00000
  91         A55        0.00187  -0.00187   0.000001000.00000
  92         A56        0.04826  -0.04826   0.000001000.00000
  93         A57        0.01417  -0.01417   0.000001000.00000
  94         A58        0.00011  -0.00011   0.000001000.00000
  95         A59        0.00427  -0.00427   0.000001000.00000
  96         A60       -0.00161   0.00161   0.000001000.00000
  97         A61        0.00148  -0.00148   0.000001000.00000
  98         A62       -0.00060   0.00060   0.000001000.00000
  99         A63        0.00039  -0.00039   0.000001000.00000
 100         A64       -0.00330   0.00330   0.000001000.00000
 101         A65        0.00254  -0.00254   0.000001000.00000
 102         A66        0.00101  -0.00101   0.000001000.00000
 103         A67       -0.00142   0.00142   0.000001000.00000
 104         A68        0.00007  -0.00007   0.000001000.00000
 105         A69        0.00013  -0.00013   0.000001000.00000
 106         A70       -0.00196   0.00196   0.000001000.00000
 107         D1         0.06492  -0.06492   0.000001000.00000
 108         D2         0.06330  -0.06330   0.000001000.00000
 109         D3         0.02069  -0.02069   0.000001000.00000
 110         D4        -0.12306   0.12306   0.000001000.00000
 111         D5        -0.12467   0.12467   0.000001000.00000
 112         D6        -0.16728   0.16728   0.000001000.00000
 113         D7         0.09098  -0.09098   0.000001000.00000
 114         D8         0.08936  -0.08936   0.000001000.00000
 115         D9         0.04675  -0.04675   0.000001000.00000
 116         D10       -0.07081   0.07081   0.000001000.00000
 117         D11       -0.05511   0.05511   0.000001000.00000
 118         D12       -0.04443   0.04443   0.000001000.00000
 119         D13        0.10817  -0.10817   0.000001000.00000
 120         D14        0.12387  -0.12387   0.000001000.00000
 121         D15        0.13455  -0.13455   0.000001000.00000
 122         D16       -0.01363   0.01363   0.000001000.00000
 123         D17        0.00207  -0.00207   0.000001000.00000
 124         D18        0.01275  -0.01275   0.000001000.00000
 125         D19        0.00283  -0.00283   0.000001000.00000
 126         D20        0.01853  -0.01853   0.000001000.00000
 127         D21        0.02921  -0.02921   0.000001000.00000
 128         D22        0.17908  -0.17908   0.000001000.00000
 129         D23       -0.03567   0.03567   0.000001000.00000
 130         D24        0.06950  -0.06950   0.000001000.00000
 131         D25       -0.01663   0.01663   0.000001000.00000
[...]
     18          6           0       -1.698444   -1.188173    0.595946
     19          6           0        1.855946   -1.363008   -0.136489
     20          8           0        2.215371   -2.495593   -0.335102
     21          8           0       -2.438140   -0.989527    1.533150
     22          8           0        2.698543   -0.305089    0.083574
     23          8           0       -2.145871   -1.505658   -0.667576
     24          6           0       -3.583379   -1.609644   -0.853597
     25          1           0       -3.665415   -1.879578   -1.912946
     26          1           0       -3.984978   -2.395337   -0.205995
     27          1           0       -4.052797   -0.644331   -0.642673
     28          6           0        4.127807   -0.597307    0.077570
     29          1           0        4.359443   -1.318546    0.868031
     30          1           0        4.422163   -0.977458   -0.905480
     31          1           0        4.565592    0.386329    0.283785
 ---------------------------------------------------------------------
 Rotational constants (GHZ):      0.6457181      0.4431437      0.3118174

 **********************************************************************

            Population analysis using the SCF density.

 **********************************************************************

 Orbital symmetries:
       Occupied  (A) (A) (A) (A) (A) (A) (A) (A) (A) (A) (A) (A)
                 (A) (A) (A) (A) (A) (A) (A) (A) (A) (A) (A) (A)
                 (A) (A) (A) (A) (A) (A) (A) (A) (A) (A) (A) (A)
                 (A) (A) (A) (A) (A) (A) (A) (A) (A) (A)
       Virtual   (A) (A) (A) (A) (A) (A) (A) (A) (A) (A) (A) (A)
                 (A) (A) (A) (A) (A) (A) (A) (A) (A) (A) (A) (A)
                 (A) (A) (A) (A) (A) (A) (A) (A) (A) (A) (A) (A)
 The electronic state is 1-A.
 Alpha  occ. eigenvalues --   -1.26225  -1.23407  -1.19957  -1.18110  -1.14662
 Alpha  occ. eigenvalues --   -1.12170  -1.03264  -0.99020  -0.95500  -0.95232
 Alpha  occ. eigenvalues --   -0.91078  -0.86481  -0.81394  -0.75574  -0.74979
 Alpha  occ. eigenvalues --   -0.73217  -0.71112  -0.69489  -0.68308  -0.63927
 Alpha  occ. eigenvalues --   -0.63510  -0.62548  -0.61065  -0.60367  -0.58384
 Alpha  occ. eigenvalues --   -0.55878  -0.55741  -0.55350  -0.54077  -0.53414
 Alpha  occ. eigenvalues --   -0.52193  -0.51849  -0.51032  -0.49602  -0.49000
 Alpha  occ. eigenvalues --   -0.48539  -0.47961  -0.45372  -0.44206  -0.43623
 Alpha  occ. eigenvalues --   -0.43519  -0.42787  -0.42045  -0.41978  -0.37534
 Alpha  occ. eigenvalues --   -0.31821
 Alpha virt. eigenvalues --   -0.06867  -0.00189   0.00798   0.02079   0.04057
 Alpha virt. eigenvalues --    0.05234   0.06652   0.07494   0.08324   0.09235
 Alpha virt. eigenvalues --    0.10281   0.10510   0.10578   0.11794   0.11979
 Alpha virt. eigenvalues --    0.12556   0.13048   0.14558   0.14711   0.15331
 Alpha virt. eigenvalues --    0.16602   0.17909   0.18233   0.18252   0.18421
 Alpha virt. eigenvalues --    0.19088   0.19194   0.19350   0.19408   0.19690
 Alpha virt. eigenvalues --    0.19809   0.20404   0.20621   0.20781   0.21030
 Alpha virt. eigenvalues --    0.21789
          Condensed to atoms (all electrons):
               1          2          3          4          5          6
     1  C    4.211041   0.000000   0.000000   0.000000   0.000000   0.000000
     2  C    0.000000   4.039242   0.000000   0.000000   0.000000   0.000000
     3  C    0.000000   0.000000   4.108352   0.000000   0.000000   0.000000
     4  C    0.000000   0.000000   0.000000   4.154182   0.000000   0.000000
     5  H    0.000000   0.000000   0.000000   0.000000   0.809180   0.000000
     6  H    0.000000   0.000000   0.000000   0.000000   0.000000   0.818060
     7  C    0.000000   0.000000   0.000000   0.000000   0.000000   0.000000
     8  H    0.000000   0.000000   0.000000   0.000000   0.000000   0.000000
     9  H    0.000000   0.000000   0.000000   0.000000   0.000000   0.000000
    10  C    0.000000   0.000000   0.000000   0.000000   0.000000   0.000000
    11  H    0.000000   0.000000   0.000000   0.000000   0.000000   0.000000
    12  C    0.000000   0.000000   0.000000   0.000000   0.000000   0.000000
    13  H    0.000000   0.000000   0.000000   0.000000   0.000000   0.000000
    14  H    0.000000   0.000000   0.000000   0.000000   0.000000   0.000000
    15  H    0.000000   0.000000   0.000000   0.000000   0.000000   0.000000
    16  N    0.000000   0.000000   0.000000   0.000000   0.000000   0.000000
    17  N    0.000000   0.000000   0.000000   0.000000   0.000000   0.000000
    18  C    0.000000   0.000000   0.000000   0.000000   0.000000   0.000000
    19  C    0.000000   0.000000   0.000000   0.000000   0.000000   0.000000
    20  O    0.000000   0.000000   0.000000   0.000000   0.000000   0.000000
    21  O    0.000000   0.000000   0.000000   0.000000   0.000000   0.000000
    22  O    0.000000   0.000000   0.000000   0.000000   0.000000   0.000000
    23  O    0.000000   0.000000   0.000000   0.000000   0.000000   0.000000
    24  C    0.000000   0.000000   0.000000   0.000000   0.000000   0.000000
    25  H    0.000000   0.000000   0.000000   0.000000   0.000000   0.000000
    26  H    0.000000   0.000000   0.000000   0.000000   0.000000   0.000000
    27  H    0.000000   0.000000   0.000000   0.000000   0.000000   0.000000
    28  C    0.000000   0.000000   0.000000   0.000000   0.000000   0.000000
    29  H    0.000000   0.000000   0.000000   0.000000   0.000000   0.000000
    30  H    0.000000   0.000000   0.000000   0.000000   0.000000   0.000000
    31  H    0.000000   0.000000   0.000000   0.000000   0.000000   0.000000
               7          8          9         10         11         12
     1  C    0.000000   0.000000   0.000000   0.000000   0.000000   0.000000
     2  C    0.000000   0.000000   0.000000   0.000000   0.000000   0.000000
     3  C    0.000000   0.000000   0.000000   0.000000   0.000000   0.000000
     4  C    0.000000   0.000000   0.000000   0.000000   0.000000   0.000000
     5  H    0.000000   0.000000   0.000000   0.000000   0.000000   0.000000
     6  H    0.000000   0.000000   0.000000   0.000000   0.000000   0.000000
     7  C    4.280716   0.000000   0.000000   0.000000   0.000000   0.000000
     8  H    0.000000   0.833869   0.000000   0.000000   0.000000   0.000000
     9  H    0.000000   0.000000   0.815058   0.000000   0.000000   0.000000
    10  C    0.000000   0.000000   0.000000   4.037465   0.000000   0.000000
    11  H    0.000000   0.000000   0.000000   0.000000   0.828717   0.000000
    12  C    0.000000   0.000000   0.000000   0.000000   0.000000   4.222316
    13  H    0.000000   0.000000   0.000000   0.000000   0.000000   0.000000
    14  H    0.000000   0.000000   0.000000   0.000000   0.000000   0.000000
    15  H    0.000000   0.000000   0.000000   0.000000   0.000000   0.000000
    16  N    0.000000   0.000000   0.000000   0.000000   0.000000   0.000000
    17  N    0.000000   0.000000   0.000000   0.000000   0.000000   0.000000
    18  C    0.000000   0.000000   0.000000   0.000000   0.000000   0.000000
    19  C    0.000000   0.000000   0.000000   0.000000   0.000000   0.000000
    20  O    0.000000   0.000000   0.000000   0.000000   0.000000   0.000000
    21  O    0.000000   0.000000   0.000000   0.000000   0.000000   0.000000
    22  O    0.000000   0.000000   0.000000   0.000000   0.000000   0.000000
    23  O    0.000000   0.000000   0.000000   0.000000   0.000000   0.000000
    24  C    0.000000   0.000000   0.000000   0.000000   0.000000   0.000000
    25  H    0.000000   0.000000   0.000000   0.000000   0.000000   0.000000
    26  H    0.000000   0.000000   0.000000   0.000000   0.000000   0.000000
    27  H    0.000000   0.000000   0.000000   0.000000   0.000000   0.000000
    28  C    0.000000   0.000000   0.000000   0.000000   0.000000   0.000000
    29  H    0.000000   0.000000   0.000000   0.000000   0.000000   0.000000
    30  H    0.000000   0.000000   0.000000   0.000000   0.000000   0.000000
    31  H    0.000000   0.000000   0.000000   0.000000   0.000000   0.000000
              13         14         15         16         17         18
     1  C    0.000000   0.000000   0.000000   0.000000   0.000000   0.000000
     2  C    0.000000   0.000000   0.000000   0.000000   0.000000   0.000000
     3  C    0.000000   0.000000   0.000000   0.000000   0.000000   0.000000
     4  C    0.000000   0.000000   0.000000   0.000000   0.000000   0.000000
     5  H    0.000000   0.000000   0.000000   0.000000   0.000000   0.000000
     6  H    0.000000   0.000000   0.000000   0.000000   0.000000   0.000000
     7  C    0.000000   0.000000   0.000000   0.000000   0.000000   0.000000
     8  H    0.000000   0.000000   0.000000   0.000000   0.000000   0.000000
     9  H    0.000000   0.000000   0.000000   0.000000   0.000000   0.000000
    10  C    0.000000   0.000000   0.000000   0.000000   0.000000   0.000000
    11  H    0.000000   0.000000   0.000000   0.000000   0.000000   0.000000
    12  C    0.000000   0.000000   0.000000   0.000000   0.000000   0.000000
    13  H    0.820017   0.000000   0.000000   0.000000   0.000000   0.000000
    14  H    0.000000   0.815328   0.000000   0.000000   0.000000   0.000000
    15  H    0.000000   0.000000   0.832182   0.000000   0.000000   0.000000
    16  N    0.000000   0.000000   0.000000   5.412315   0.000000   0.000000
    17  N    0.000000   0.000000   0.000000   0.000000   5.030356   0.000000
    18  C    0.000000   0.000000   0.000000   0.000000   0.000000   3.282347
    19  C    0.000000   0.000000   0.000000   0.000000   0.000000   0.000000
    20  O    0.000000   0.000000   0.000000   0.000000   0.000000   0.000000
    21  O    0.000000   0.000000   0.000000   0.000000   0.000000   0.000000
    22  O    0.000000   0.000000   0.000000   0.000000   0.000000   0.000000
    23  O    0.000000   0.000000   0.000000   0.000000   0.000000   0.000000
    24  C    0.000000   0.000000   0.000000   0.000000   0.000000   0.000000
    25  H    0.000000   0.000000   0.000000   0.000000   0.000000   0.000000
    26  H    0.000000   0.000000   0.000000   0.000000   0.000000   0.000000
    27  H    0.000000   0.000000   0.000000   0.000000   0.000000   0.000000
    28  C    0.000000   0.000000   0.000000   0.000000   0.000000   0.000000
    29  H    0.000000   0.000000   0.000000   0.000000   0.000000   0.000000
    30  H    0.000000   0.000000   0.000000   0.000000   0.000000   0.000000
    31  H    0.000000   0.000000   0.000000   0.000000   0.000000   0.000000
              19         20         21         22         23         24
     1  C    0.000000   0.000000   0.000000   0.000000   0.000000   0.000000
     2  C    0.000000   0.000000   0.000000   0.000000   0.000000   0.000000
     3  C    0.000000   0.000000   0.000000   0.000000   0.000000   0.000000
     4  C    0.000000   0.000000   0.000000   0.000000   0.000000   0.000000
     5  H    0.000000   0.000000   0.000000   0.000000   0.000000   0.000000
     6  H    0.000000   0.000000   0.000000   0.000000   0.000000   0.000000
     7  C    0.000000   0.000000   0.000000   0.000000   0.000000   0.000000
     8  H    0.000000   0.000000   0.000000   0.000000   0.000000   0.000000
     9  H    0.000000   0.000000   0.000000   0.000000   0.000000   0.000000
    10  C    0.000000   0.000000   0.000000   0.000000   0.000000   0.000000
    11  H    0.000000   0.000000   0.000000   0.000000   0.000000   0.000000
    12  C    0.000000   0.000000   0.000000   0.000000   0.000000   0.000000
    13  H    0.000000   0.000000   0.000000   0.000000   0.000000   0.000000
    14  H    0.000000   0.000000   0.000000   0.000000   0.000000   0.000000
    15  H    0.000000   0.000000   0.000000   0.000000   0.000000   0.000000
    16  N    0.000000   0.000000   0.000000   0.000000   0.000000   0.000000
    17  N    0.000000   0.000000   0.000000   0.000000   0.000000   0.000000
    18  C    0.000000   0.000000   0.000000   0.000000   0.000000   0.000000
    19  C    3.332126   0.000000   0.000000   0.000000   0.000000   0.000000
    20  O    0.000000   6.489211   0.000000   0.000000   0.000000   0.000000
    21  O    0.000000   0.000000   6.536694   0.000000   0.000000   0.000000
    22  O    0.000000   0.000000   0.000000   6.434313   0.000000   0.000000
    23  O    0.000000   0.000000   0.000000   0.000000   6.446039   0.000000
    24  C    0.000000   0.000000   0.000000   0.000000   0.000000   4.174737
    25  H    0.000000   0.000000   0.000000   0.000000   0.000000   0.000000
    26  H    0.000000   0.000000   0.000000   0.000000   0.000000   0.000000
    27  H    0.000000   0.000000   0.000000   0.000000   0.000000   0.000000
    28  C    0.000000   0.000000   0.000000   0.000000   0.000000   0.000000
    29  H    0.000000   0.000000   0.000000   0.000000   0.000000   0.000000
    30  H    0.000000   0.000000   0.000000   0.000000   0.000000   0.000000
    31  H    0.000000   0.000000   0.000000   0.000000   0.000000   0.000000
              25         26         27         28         29         30
     1  C    0.000000   0.000000   0.000000   0.000000   0.000000   0.000000
     2  C    0.000000   0.000000   0.000000   0.000000   0.000000   0.000000
     3  C    0.000000   0.000000   0.000000   0.000000   0.000000   0.000000
     4  C    0.000000   0.000000   0.000000   0.000000   0.000000   0.000000
     5  H    0.000000   0.000000   0.000000   0.000000   0.000000   0.000000
     6  H    0.000000   0.000000   0.000000   0.000000   0.000000   0.000000
     7  C    0.000000   0.000000   0.000000   0.000000   0.000000   0.000000
     8  H    0.000000   0.000000   0.000000   0.000000   0.000000   0.000000
     9  H    0.000000   0.000000   0.000000   0.000000   0.000000   0.000000
    10  C    0.000000   0.000000   0.000000   0.000000   0.000000   0.000000
    11  H    0.000000   0.000000   0.000000   0.000000   0.000000   0.000000
    12  C    0.000000   0.000000   0.000000   0.000000   0.000000   0.000000
    13  H    0.000000   0.000000   0.000000   0.000000   0.000000   0.000000
    14  H    0.000000   0.000000   0.000000   0.000000   0.000000   0.000000
    15  H    0.000000   0.000000   0.000000   0.000000   0.000000   0.000000
    16  N    0.000000   0.000000   0.000000   0.000000   0.000000   0.000000
    17  N    0.000000   0.000000   0.000000   0.000000   0.000000   0.000000
    18  C    0.000000   0.000000   0.000000   0.000000   0.000000   0.000000
    19  C    0.000000   0.000000   0.000000   0.000000   0.000000   0.000000
    20  O    0.000000   0.000000   0.000000   0.000000   0.000000   0.000000
    21  O    0.000000   0.000000   0.000000   0.000000   0.000000   0.000000
    22  O    0.000000   0.000000   0.000000   0.000000   0.000000   0.000000
    23  O    0.000000   0.000000   0.000000   0.000000   0.000000   0.000000
    24  C    0.000000   0.000000   0.000000   0.000000   0.000000   0.000000
    25  H    0.836825   0.000000   0.000000   0.000000   0.000000   0.000000
    26  H    0.000000   0.848018   0.000000   0.000000   0.000000   0.000000
    27  H    0.000000   0.000000   0.852505   0.000000   0.000000   0.000000
    28  C    0.000000   0.000000   0.000000   4.177476   0.000000   0.000000
    29  H    0.000000   0.000000   0.000000   0.000000   0.842557   0.000000
    30  H    0.000000   0.000000   0.000000   0.000000   0.000000   0.844542
    31  H    0.000000   0.000000   0.000000   0.000000   0.000000   0.000000
              31
     1  C    0.000000
     2  C    0.000000
     3  C    0.000000
     4  C    0.000000
     5  H    0.000000
     6  H    0.000000
     7  C    0.000000
     8  H    0.000000
     9  H    0.000000
    10  C    0.000000
    11  H    0.000000
    12  C    0.000000
    13  H    0.000000
    14  H    0.000000
    15  H    0.000000
    16  N    0.000000
    17  N    0.000000
    18  C    0.000000
    19  C    0.000000
    20  O    0.000000
    21  O    0.000000
    22  O    0.000000
    23  O    0.000000
    24  C    0.000000
    25  H    0.000000
    26  H    0.000000
    27  H    0.000000
    28  C    0.000000
    29  H    0.000000
    30  H    0.000000
    31  H    0.834215
 Mulliken charges:
               1
     1  C   -0.211041
     2  C   -0.039242
     3  C   -0.108352
     4  C   -0.154182
     5  H    0.190820
     6  H    0.181940
     7  C   -0.280716
     8  H    0.166131
     9  H    0.184942
    10  C   -0.037465
    11  H    0.171283
    12  C   -0.222316
    13  H    0.179983
    14  H    0.184672
    15  H    0.167818
    16  N   -0.412315
    17  N   -0.030356
    18  C    0.717653
    19  C    0.667874
    20  O   -0.489211
    21  O   -0.536694
    22  O   -0.434313
    23  O   -0.446039
    24  C   -0.174737
    25  H    0.163175
    26  H    0.151982
    27  H    0.147495
    28  C   -0.177476
    29  H    0.157443
    30  H    0.155458
    31  H    0.165785
 Sum of Mulliken charges =   0.00000
 Mulliken charges with hydrogens summed into heavy atoms:
               1
     1  C   -0.020221
     2  C    0.145429
     3  C    0.059466
     4  C    0.027758
     7  C    0.070356
    10  C    0.133818
    12  C   -0.042333
    16  N   -0.412315
    17  N   -0.030356
    18  C    0.717653
    19  C    0.667874
    20  O   -0.489211
    21  O   -0.536694
    22  O   -0.434313
    23  O   -0.446039
    24  C    0.287915
    28  C    0.301211
 Charge=              0.0000 electrons
 Dipole moment (field-independent basis, Debye):
    X=              2.4508    Y=              7.3947    Z=             -3.0805  Tot=              8.3772
 N-N= 7.393443198748D+02 E-N=-1.356393552682D+03  KE=-5.956531380015D+01
 1\1\GINC-D10S0B1\FTS\RPM6\ZDO\C11H14N2O4\CHMKSH\07-Sep-2020\0\\# opt=(
 calcfc,qst3) pm6 scrf=(cpcm,solvent=toluene) geom=connectivity empiric
 aldispersion=gd3\\Title Card Required\\0,1\C,-0.464125932,0.7666983526
 ,0.7126509069\C,-0.8677805495,1.6757019032,-0.5570104112\C,1.444008563
 1,1.9847992575,-0.2775563195\C,1.0071127312,1.1717122484,0.9531465604\
 H,-1.1077903869,0.501004677,1.5575113099\H,1.6538365066,0.6012722956,1
 .5964107106\C,0.4112765915,1.8187826715,-1.3971820207\H,0.3625046338,2
 .6986246868,-2.0618696202\H,0.6144839962,0.9476860473,-2.0470472661\C,
 -0.7318214637,2.528725148,0.6354697638\H,-1.5113397128,3.0197400768,1.
 1876433089\C,0.7558281861,2.69189523,0.9098696527\H,1.1671466188,3.475
 3688823,1.5158197345\H,-1.8167177282,1.4767556559,-1.0582320926\H,2.48
 34330026,2.1406379733,-0.5352565959\N,0.277064608,-1.206948424,-0.8859
 540171\N,-0.4505629191,-0.9486201249,0.1464029299\C,1.7048019427,-1.17
 46506266,-0.7863764405\C,-1.8455685894,-1.3893655512,-0.0451044648\O,-
 2.2095649941,-2.5322832276,0.0672680786\O,2.4393577595,-0.9071076269,-
 1.7103958221\O,-2.6840800732,-0.3136005842,-0.1763241339\O,2.158851000
 5,-1.5916199475,0.445471846\C,3.5969877861,-1.7164853925,0.6128515028\
 H,3.684566368,-2.0684466906,1.6473888829\H,3.9902404683,-2.4512490908,
 -0.0966965369\H,4.0700235824,-0.7398858142,0.4744264788\C,-4.114773170
 4,-0.5987188789,-0.1831521658\H,-4.355334938,-1.255144493,-1.025710639
 9\H,-4.4046473655,-1.0528635097,0.7693561043\H,-4.5487825223,0.4000198
 764,-0.3091582238\\Version=ES64L-G09RevD.01\State=1-A\HF=-0.0224407\RM
 SD=5.619e-09\RMSF=3.010e-06\Dipole=-0.9411057,2.8105966,1.4413252\PG=C
 01 [X(C11H14N2O4)]\\@


 THE MORE PROGRESS PHYSICAL SCIENCES MAKE, THE MORE THEY TEND TO ENTER
 THE DOMAIN OF MATHEMATICS, WHICH IS A KIND OF CENTRE TO WHICH THEY ALL
 CONVERGE.  WE MAY EVEN JUDGE THE DEGREE OF PERFECTION TO WHICH A 
 SCIENCE HAS ARRIVED BY THE FACILITY WITH WHICH IT MAY BE SUBMITTED
 TO CALCULATION.

                               -- ADOLPHE QUETELET, 1796-1874
 Job cpu time:       0 days  0 hours 12 minutes  4.7 seconds.
 File lengths (MBytes):  RWF=    137 Int=      0 D2E=      0 Chk=     10 Scr=      1
 Normal termination of Gaussian 09 at Mon Sep  7 02:35:42 2020.
