 Entering Gaussian System, Link 0=g09
 Input=freq_water_TS2_scan2_diene_dienophile_pm6_cpcmtoluene_2.com
 Output=freq_water_TS2_scan2_diene_dienophile_pm6_cpcmtoluene_2.log
 Initial command:
 /apps/applications/gaussian/G09.D01/2/default/g09/l1.exe "/local/697370.1.40core-192G.q/Gau-455281.inp" -scrdir="/local/697370.1.40core-192G.q/"
 Entering Link 1 = /apps/applications/gaussian/G09.D01/2/default/g09/l1.exe PID=    455282.
  
 Copyright (c) 1988,1990,1992,1993,1995,1998,2003,2009,2013,
            Gaussian, Inc.  All Rights Reserved.
  
 This is part of the Gaussian(R) 09 program.  It is based on
 the Gaussian(R) 03 system (copyright 2003, Gaussian, Inc.),
 the Gaussian(R) 98 system (copyright 1998, Gaussian, Inc.),
 the Gaussian(R) 94 system (copyright 1995, Gaussian, Inc.),
 the Gaussian 92(TM) system (copyright 1992, Gaussian, Inc.),
 the Gaussian 90(TM) system (copyright 1990, Gaussian, Inc.),
 the Gaussian 88(TM) system (copyright 1988, Gaussian, Inc.),
 the Gaussian 86(TM) system (copyright 1986, Carnegie Mellon
 University), and the Gaussian 82(TM) system (copyright 1983,
 Carnegie Mellon University). Gaussian is a federally registered
 trademark of Gaussian, Inc.
  
 This software contains proprietary and confidential information,
 including trade secrets, belonging to Gaussian, Inc.
  
 This software is provided under written license and may be
 used, copied, transmitted, or stored only in accord with that
 written license.
  
 The following legend is applicable only to US Government
 contracts under FAR:
  
                    RESTRICTED RIGHTS LEGEND
  
 Use, reproduction and disclosure by the US Government is
 subject to restrictions as set forth in subparagraphs (a)
 and (c) of the Commercial Computer Software - Restricted
 Rights clause in FAR 52.227-19.
  
 Gaussian, Inc.
 340 Quinnipiac St., Bldg. 40, Wallingford CT 06492
  
  
 ---------------------------------------------------------------
 Warning -- This program may not be used in any manner that
 competes with the business of Gaussian, Inc. or will provide
 assistance to any competitor of Gaussian, Inc.  The licensee
 of this program is prohibited from giving any competitor of
 Gaussian, Inc. access to this program.  By using this program,
 the user acknowledges that Gaussian, Inc. is engaged in the
 business of creating and licensing software in the field of
 computational chemistry and represents and warrants to the
 licensee that it is not a competitor of Gaussian, Inc. and that
 it will not use this program in any manner prohibited above.
 ---------------------------------------------------------------
  

 Cite this work as:
 Gaussian 09, Revision D.01,
 M. J. Frisch, G. W. Trucks, H. B. Schlegel, G. E. Scuseria, 
 M. A. Robb, J. R. Cheeseman, G. Scalmani, V. Barone, B. Mennucci, 
 G. A. Petersson, H. Nakatsuji, M. Caricato, X. Li, H. P. Hratchian, 
 A. F. Izmaylov, J. Bloino, G. Zheng, J. L. Sonnenberg, M. Hada, 
 M. Ehara, K. Toyota, R. Fukuda, J. Hasegawa, M. Ishida, T. Nakajima, 
 Y. Honda, O. Kitao, H. Nakai, T. Vreven, J. A. Montgomery, Jr., 
 J. E. Peralta, F. Ogliaro, M. Bearpark, J. J. Heyd, E. Brothers, 
 K. N. Kudin, V. N. Staroverov, T. Keith, R. Kobayashi, J. Normand, 
 K. Raghavachari, A. Rendell, J. C. Burant, S. S. Iyengar, J. Tomasi, 
 M. Cossi, N. Rega, J. M. Millam, M. Klene, J. E. Knox, J. B. Cross, 
 V. Bakken, C. Adamo, J. Jaramillo, R. Gomperts, R. E. Stratmann, 
 O. Yazyev, A. J. Austin, R. Cammi, C. Pomelli, J. W. Ochterski, 
 R. L. Martin, K. Morokuma, V. G. Zakrzewski, G. A. Voth, 
 P. Salvador, J. J. Dannenberg, S. Dapprich, A. D. Daniels, 
 O. Farkas, J. B. Foresman, J. V. Ortiz, J. Cioslowski, 
 and D. J. Fox, Gaussian, Inc., Wallingford CT, 2013.
 
 ******************************************
 Gaussian 09:  ES64L-G09RevD.01 24-Apr-2013
                12-Aug-2020 
 ******************************************
 %nprocshared=4
 Will use up to    4 processors via shared memory.
 ----------------------------------------------------------------------
 # freq pm6 scrf=(cpcm,solvent=water) geom=connectivity empiricaldisper
 sion=gd3
 ----------------------------------------------------------------------
 1/10=4,30=1,38=1,57=2/1,3;
 2/12=2,17=6,18=5,40=1/2;
 3/5=2,16=1,25=1,41=3900000,70=2101,71=2,72=1,124=31,140=1/1,2,3;
 4/35=1/1;
 5/5=2,35=1,38=5,53=1,98=1/2;
 8/6=4,10=90,11=11/1;
 11/6=1,8=1,9=11,15=111,16=1/1,2,10;
 10/6=1/2;
 6/7=2,8=2,9=2,10=2,18=1,28=1/1;
 7/8=1,10=1,25=1/1,2,3,16;
 1/10=4,30=1/3;
 99//99;
 -------------------
 Title Card Required
 -------------------
 Symbolic Z-matrix:
 Charge =  0 Multiplicity = 1
 C                    -2.28985   0.87244  -0.66271 
 C                    -1.33814  -0.15683  -1.08408 
 C                    -0.04636   0.15501  -0.65076 
 C                    -0.12159   1.53731   0.00533 
 H                    -1.60519  -0.9122   -1.80236 
 H                     0.86206  -0.12399  -1.18285 
 C                    -2.03894   3.12442   0.60226 
 H                    -1.42173   4.0013    0.3393 
 H                    -3.06582   3.30334   0.23593 
 H                    -2.07382   3.0412    1.70307 
 N                    -1.49157   1.89888  -0.00372 
 O                     0.78033   2.224     0.44003 
 O                    -3.49217   0.97242  -0.78555 
 C                    -1.11345  -2.65714   0.21385 
 H                    -1.20827  -3.62101  -0.29652 
 C                     0.18722  -2.19344   0.49873 
 H                     1.03354  -2.83686   0.22388 
 C                    -2.22976  -1.89012   0.44501 
 H                    -2.19623  -1.03277   1.12972 
 C                    -3.57608  -2.25762  -0.04495 
 H                    -4.13487  -1.37446  -0.40411 
 H                    -3.56866  -2.98946  -0.866 
 H                    -4.18698  -2.69733   0.76419 
 C                     0.44709  -0.89984   0.95835 
 H                    -0.29469  -0.40449   1.6075 
 C                     1.86431  -0.51881   1.30078 
 H                     2.23605  -1.05667   2.19703 
 H                     1.98622   0.57174   1.45094 
 C                     3.61549  -0.19834  -0.44732 
 C                     3.77059   1.22172  -0.0748 
 H                     4.37106   1.34444   0.84471 
 H                     4.28917   1.79763  -0.86017 
 H                     2.80555   1.74064   0.10805 
 O                     2.72146  -1.00909   0.22451 
 O                     4.21918  -0.7968   -1.31954 
 

 GradGradGradGradGradGradGradGradGradGradGradGradGradGradGradGradGradGrad
 Berny optimization.
 Initialization pass.
 Trust Radius=3.00D-01 FncErr=1.00D-07 GrdErr=1.00D-07
 Number of steps in this run=      2 maximum allowed number of steps=      2.
 GradGradGradGradGradGradGradGradGradGradGradGradGradGradGradGradGradGrad

                          Input orientation:                          
 ---------------------------------------------------------------------
 Center     Atomic      Atomic             Coordinates (Angstroms)
 Number     Number       Type             X           Y           Z
 ---------------------------------------------------------------------
      1          6           0       -2.289847    0.872440   -0.662709
      2          6           0       -1.338141   -0.156827   -1.084085
      3          6           0       -0.046355    0.155005   -0.650755
      4          6           0       -0.121589    1.537307    0.005327
      5          1           0       -1.605190   -0.912196   -1.802364
      6          1           0        0.862060   -0.123992   -1.182849
      7          6           0       -2.038938    3.124418    0.602262
      8          1           0       -1.421734    4.001299    0.339304
      9          1           0       -3.065823    3.303340    0.235933
     10          1           0       -2.073819    3.041200    1.703065
     11          7           0       -1.491565    1.898880   -0.003719
     12          8           0        0.780326    2.224004    0.440033
     13          8           0       -3.492174    0.972415   -0.785551
     14          6           0       -1.113451   -2.657139    0.213851
     15          1           0       -1.208266   -3.621008   -0.296523
     16          6           0        0.187215   -2.193437    0.498731
     17          1           0        1.033540   -2.836864    0.223877
     18          6           0       -2.229756   -1.890122    0.445011
     19          1           0       -2.196234   -1.032766    1.129724
     20          6           0       -3.576075   -2.257625   -0.044954
     21          1           0       -4.134865   -1.374459   -0.404113
     22          1           0       -3.568657   -2.989459   -0.866002
     23          1           0       -4.186983   -2.697332    0.764185
     24          6           0        0.447088   -0.899842    0.958349
     25          1           0       -0.294694   -0.404488    1.607498
     26          6           0        1.864306   -0.518808    1.300776
     27          1           0        2.236048   -1.056672    2.197026
     28          1           0        1.986224    0.571741    1.450939
     29          6           0        3.615489   -0.198340   -0.447319
     30          6           0        3.770587    1.221716   -0.074797
     31          1           0        4.371064    1.344440    0.844713
     32          1           0        4.289165    1.797629   -0.860166
     33          1           0        2.805546    1.740639    0.108051
     34          8           0        2.721463   -1.009086    0.224510
     35          8           0        4.219183   -0.796796   -1.319540
 ---------------------------------------------------------------------
                    Distance matrix (angstroms):
                    1          2          3          4          5
     1  C    0.000000
     2  C    1.463794   0.000000
     3  C    2.355443   1.397757   0.000000
     4  C    2.364247   2.353063   1.531947   0.000000
     5  H    2.225420   1.076021   2.212485   3.386574   0.000000
     6  H    3.346332   2.202661   1.089119   2.266990   2.663154
     7  C    2.595094   3.755190   3.789176   2.559586   4.718540
     8  H    3.398148   4.395798   4.203078   2.805918   5.363099
     9  H    2.705360   4.086574   4.451451   3.441012   4.904982
    10  H    3.216687   4.305439   4.240425   2.992526   5.304431
    11  N    1.457773   2.327372   2.355502   1.416916   3.339189
    12  O    3.531109   3.532590   2.480721   1.214073   4.533738
    13  O    1.212714   2.450340   3.544009   3.507910   2.854186
    14  C    3.822328   2.826072   3.129599   4.315165   2.711412
    15  H    4.636268   3.554950   3.966584   5.280170   3.124543
    16  C    4.109061   2.996631   2.625081   3.775878   3.185802
    17  H    5.058643   3.810280   3.298854   4.529399   3.843552
    18  C    2.976979   2.477382   3.185983   4.047834   2.529252
    19  H    2.617516   2.530720   3.033626   3.489082   2.993495
    20  C    3.439958   3.240601   4.318183   5.132008   2.963622
    21  H    2.918821   3.125165   4.372186   4.975179   2.927123
    22  H    4.073199   3.612003   4.726584   5.756136   3.007823
    23  H    4.287006   4.241010   5.223283   5.919076   4.054570
    24  C    3.641377   2.812588   1.986304   2.677936   3.439990
    25  H    3.281009   2.897367   2.339746   2.523388   3.688133
    26  C    4.800816   4.009272   2.813027   3.138403   4.671363
    27  H    5.690631   4.934596   3.845436   4.134093   5.547171
    28  H    4.779405   4.243649   2.953331   2.732213   5.067968
    29  C    6.005494   4.994561   3.684473   4.145252   5.440701
    30  C    6.098893   5.386849   4.004828   3.905772   6.036311
    31  H    6.845644   6.210401   4.812979   4.574461   6.914842
    32  H    6.646681   5.961259   4.640991   4.502399   6.555479
    33  H    5.225980   4.710808   3.350129   2.935986   5.490156
    34  O    5.425912   4.349615   3.127621   3.822970   4.778863
    35  O    6.751685   5.599004   4.421313   5.103490   5.845490
                    6          7          8          9         10
     6  H    0.000000
     7  C    4.706865   0.000000
     8  H    4.954865   1.104087   0.000000
     9  H    5.402575   1.104854   1.789095   0.000000
    10  H    5.192911   1.104495   1.790768   1.790326   0.000000
    11  N    3.319926   1.472676   2.131363   2.123259   2.134719
    12  O    2.855435   2.964003   2.831606   3.999936   3.226330
    13  O    4.507694   2.944323   3.837468   2.580391   3.533385
    14  C    3.502891   5.868031   6.666751   6.272125   5.967506
    15  H    4.159440   6.855553   7.651759   7.188924   7.009461
    16  C    2.750587   5.765939   6.402256   6.392642   5.827874
    17  H    3.060712   6.717156   7.266510   7.382887   6.811411
    18  C    3.915159   5.020633   5.947513   5.264482   5.091655
    19  H    3.940435   4.193464   5.154263   4.511858   4.115933
    20  C    5.054131   5.634542   6.630458   5.591385   5.778399
    21  H    5.209545   5.064148   6.067332   4.840900   5.309063
    22  H    5.286071   6.471115   7.411662   6.408309   6.723354
    23  H    5.992149   6.207503   7.259393   6.127325   6.186898
    24  C    2.314924   4.743605   5.281751   5.525321   4.737234
    25  H    3.033611   4.062766   4.721175   4.827871   3.879070
    26  C    2.707170   5.384824   5.670437   6.328418   5.323939
    27  H    3.765805   6.188723   6.512570   7.139007   5.967538
    28  H    2.946969   4.841316   4.961026   5.870354   4.758755
    29  C    2.850948   6.641904   6.605252   7.574201   6.891081
    30  C    3.390905   6.150550   5.904046   7.153056   6.374041
    31  H    4.310500   6.656969   6.393031   7.714609   6.719545
    32  H    3.942309   6.629023   6.237729   7.587124   6.971670
    33  H    2.986705   5.062422   4.799371   6.077118   5.295633
    34  O    2.494280   6.315851   6.502555   7.217328   6.448695
    35  O    3.426605   7.631076   7.589033   8.503054   7.966695
                   11         12         13         14         15
    11  N    0.000000
    12  O    2.337544   0.000000
    13  O    2.339238   4.617660   0.000000
    14  C    4.576857   5.240525   4.453177   0.000000
    15  H    5.534903   6.217811   5.153147   1.094767   0.000000
    16  C    4.451721   4.457467   5.020946   1.409932   2.148896
    17  H    5.371706   5.071807   6.000970   2.154524   2.431335
    18  C    3.886235   5.097710   3.361860   1.374004   2.142261
    19  H    3.221149   4.465662   3.060799   2.156346   3.115968
    20  C    4.650099   6.268847   3.314918   2.508208   2.743833
    21  H    4.226358   6.149847   2.462999   3.340073   3.691008
    22  H    5.380864   6.913724   3.963429   2.702694   2.508905
    23  H    5.383319   6.999913   4.043697   3.122672   3.294091
    24  C    3.537908   3.184040   4.697267   2.465289   3.423397
    25  H    3.055164   3.070442   4.224503   2.772553   3.847845
    26  C    4.336910   3.072281   5.938719   3.823729   4.649270
    27  H    5.241533   3.996121   6.769452   4.208755   4.965572
    28  H    3.996542   2.281687   5.930874   4.643709   5.553155
    29  C    5.538692   3.833183   7.211376   5.370820   5.916588
    30  C    5.306020   3.195511   7.301713   6.243610   6.949109
    31  H    5.949593   3.718978   8.039072   6.818396   7.555595
    32  H    5.844706   3.766200   7.825330   7.084259   7.739578
    33  H    4.301476   2.108405   6.407025   5.891535   6.709816
    34  O    5.124252   3.777212   6.599686   4.174058   4.747250
    35  O    6.450635   4.903781   7.929709   5.852277   6.203220
                   16         17         18         19         20
    16  C    0.000000
    17  H    1.098093   0.000000
    18  C    2.436521   3.405044   0.000000
    19  H    2.725094   3.808775   1.097732   0.000000
    20  C    3.802902   4.653637   1.479087   2.187261   0.000000
    21  H    4.490682   5.407903   2.148572   2.495536   1.105090
    22  H    4.074644   4.731949   2.172545   3.113698   1.099889
    23  H    4.411121   5.250263   2.141074   2.620588   1.105105
    24  C    1.397201   2.153005   2.899942   2.652205   4.363030
    25  H    2.159152   3.097590   2.702397   2.058848   4.114872
    26  C    2.502058   2.687614   4.401611   4.096510   5.867897
    27  H    2.893814   2.916921   4.869045   4.559038   6.344252
    28  H    3.433561   3.745915   4.984691   4.491167   6.417334
    29  C    4.077804   3.752169   6.150225   6.079429   7.491405
    30  C    4.983248   4.904356   6.779222   6.491264   8.128970
    31  H    5.490070   5.385890   7.361588   6.990117   8.770598
    32  H    5.882279   5.766521   7.602587   7.350592   8.886600
    33  H    4.741861   4.909883   6.216931   5.809767   7.532238
    34  O    2.810747   2.487942   5.033827   5.000372   6.425764
    35  O    4.638263   4.085625   6.774793   6.871110   8.032723
                   21         22         23         24         25
    21  H    0.000000
    22  H    1.772613   0.000000
    23  H    1.765681   1.767816   0.000000
    24  C    4.803734   4.880672   4.974262   0.000000
    25  H    4.442335   4.849651   4.595457   1.103182   0.000000
    26  C    6.295144   6.349498   6.453836   1.506967   2.183673
    27  H    6.888791   6.841959   6.782339   2.181581   2.679094
    28  H    6.685555   6.993359   7.019042   2.185667   2.485985
    29  C    7.839203   7.718652   8.281985   3.536492   4.422025
    30  C    8.327349   8.498500   8.909868   4.076033   4.690540
    31  H    9.016807   9.205889   9.464807   4.521869   5.040822
    32  H    9.013013   9.201174   9.730790   5.034372   5.652473
    33  H    7.624661   7.997066   8.307922   3.641081   4.057265
    34  O    6.894773   6.684063   7.132184   2.392328   3.372743
    35  O    8.423884   8.103328   8.866655   4.407732   5.394121
                   26         27         28         29         30
    26  C    0.000000
    27  H    1.109393   0.000000
    28  H    1.107569   1.808532   0.000000
    29  C    2.495031   3.103571   2.617425   0.000000
    30  C    2.924984   3.564694   2.436040   1.476275   0.000000
    31  H    3.156505   3.486027   2.579154   2.149514   1.105049
    32  H    3.989422   4.659265   3.485333   2.146666   1.103360
    33  H    2.722798   3.537385   1.959837   2.173496   1.110864
    34  O    1.460630   2.031923   2.131600   1.381284   2.483289
    35  O    3.533947   4.045565   3.812421   1.217935   2.413507
                   31         32         33         34         35
    31  H    0.000000
    32  H    1.765984   0.000000
    33  H    1.774962   1.772517   0.000000
    34  O    2.940224   3.392913   2.753474   0.000000
    35  O    3.048270   2.635709   3.236505   2.161556   0.000000
 Stoichiometry    C13H17NO4
 Framework group  C1[X(C13H17NO4)]
 Deg. of freedom    99
 Full point group                 C1      NOp   1
 Largest Abelian subgroup         C1      NOp   1
 Largest concise Abelian subgroup C1      NOp   1
                         Standard orientation:                         
 ---------------------------------------------------------------------
 Center     Atomic      Atomic             Coordinates (Angstroms)
 Number     Number       Type             X           Y           Z
 ---------------------------------------------------------------------
      1          6           0       -2.289847    0.872440   -0.662709
      2          6           0       -1.338141   -0.156827   -1.084085
      3          6           0       -0.046355    0.155005   -0.650755
      4          6           0       -0.121589    1.537307    0.005327
      5          1           0       -1.605190   -0.912196   -1.802364
      6          1           0        0.862060   -0.123992   -1.182849
      7          6           0       -2.038938    3.124418    0.602262
      8          1           0       -1.421734    4.001299    0.339304
      9          1           0       -3.065823    3.303340    0.235933
     10          1           0       -2.073819    3.041200    1.703065
     11          7           0       -1.491565    1.898880   -0.003719
     12          8           0        0.780326    2.224004    0.440033
     13          8           0       -3.492174    0.972415   -0.785551
     14          6           0       -1.113451   -2.657139    0.213851
     15          1           0       -1.208266   -3.621008   -0.296523
     16          6           0        0.187215   -2.193437    0.498731
     17          1           0        1.033540   -2.836864    0.223877
     18          6           0       -2.229756   -1.890122    0.445011
     19          1           0       -2.196234   -1.032766    1.129724
     20          6           0       -3.576075   -2.257625   -0.044954
     21          1           0       -4.134865   -1.374459   -0.404113
     22          1           0       -3.568657   -2.989459   -0.866002
     23          1           0       -4.186983   -2.697332    0.764185
     24          6           0        0.447088   -0.899842    0.958349
     25          1           0       -0.294694   -0.404488    1.607498
     26          6           0        1.864306   -0.518808    1.300776
     27          1           0        2.236048   -1.056672    2.197026
     28          1           0        1.986224    0.571741    1.450939
     29          6           0        3.615489   -0.198340   -0.447319
     30          6           0        3.770587    1.221716   -0.074797
     31          1           0        4.371064    1.344440    0.844713
     32          1           0        4.289165    1.797629   -0.860166
     33          1           0        2.805546    1.740639    0.108051
     34          8           0        2.721463   -1.009086    0.224510
     35          8           0        4.219183   -0.796796   -1.319540
 ---------------------------------------------------------------------
 Rotational constants (GHZ):      0.6142280      0.3090334      0.2302748
 Standard basis: VSTO-6G (5D, 7F)
 There are    89 symmetry adapted cartesian basis functions of A   symmetry.
 There are    89 symmetry adapted basis functions of A   symmetry.
    89 basis functions,   534 primitive gaussians,    89 cartesian basis functions
    49 alpha electrons       49 beta electrons
       nuclear repulsion energy       788.0098283394 Hartrees.
 Integral buffers will be    131072 words long.
 Regular integral format.
 Two-electron integral symmetry is turned off.
 Nuclear repulsion after empirical dispersion term =      787.9964786482 Hartrees.
 Force inversion solution in PCM.
 ------------------------------------------------------------------------------
 Polarizable Continuum Model (PCM)
 =================================
 Model                : C-PCM.
 Atomic radii         : UFF (Universal Force Field).
 Polarization charges : Total charges.
 Charge compensation  : None.
 Solution method      : Matrix inversion.
 Cavity type          : Scaled VdW (van der Waals Surface) (Alpha=1.100).
 Cavity algorithm     : GePol (No added spheres)
                        Default sphere list used, NSphG=   35.
                        Lebedev-Laikov grids with approx.  5.0 points / Ang**2.
                        Smoothing algorithm: Karplus/York (Gamma=1.0000).
                        Polarization charges: spherical gaussians, with
                                              point-specific exponents (IZeta= 3).
                        Self-potential: point-specific (ISelfS= 7).
                        Self-field    : sphere-specific E.n sum rule (ISelfD= 2).
 1st derivatives      : Analytical E(r).r(x)/FMM algorithm (CHGder, D1EAlg=3).
                        Cavity 1st derivative terms included.
 2nd derivatives      : Analytical E(r).r(xy)/FMM algorithm (CHGder, D2EAlg=3).
                        Cavity 2nd derivative terms included.
 Solvent              : Water, Eps=  78.355300 Eps(inf)=   1.777849
 ------------------------------------------------------------------------------
 Do NDO integrals.
 One-electron integrals computed using PRISM.
 NBasis=    89 RedAO= F EigKep=  0.00D+00  NBF=    89
 NBsUse=    89 1.00D-04 EigRej=  0.00D+00 NBFU=    89
 Simple Huckel Guess.
 Overlap will be assumed to be unity.
 Keep J ints in memory in canonical form, NReq=9926635.
 Requested convergence on RMS density matrix=1.00D-08 within 128 cycles.
 Requested convergence on MAX density matrix=1.00D-06.
 Requested convergence on             energy=1.00D-06.
 No special actions if energy rises.
 Inv3:  Mode=1 IEnd=    18184332.
 Iteration    1 A*A^-1 deviation from unit magnitude is 6.22D-15 for   2445.
 Iteration    1 A*A^-1 deviation from orthogonality  is 1.92D-15 for   1804   1618.
 Iteration    1 A^-1*A deviation from unit magnitude is 6.22D-15 for   2445.
 Iteration    1 A^-1*A deviation from orthogonality  is 1.63D-15 for   1157   1030.
 Error on total polarization charges = -0.00040
 SCF Done:  E(RPM6D3) = -0.198113896678     A.U. after   19 cycles
            NFock= 18  Conv=0.35D-08     -V/T= 0.9969
 Range of M.O.s used for correlation:     1    89
 NBasis=    89 NAE=    49 NBE=    49 NFC=     0 NFV=     0
 NROrb=     89 NOA=    49 NOB=    49 NVA=    40 NVB=    40
 Symmetrizing basis deriv contribution to polar:
 IMax=3 JMax=2 DiffMx= 0.00D+00
 G2DrvN: will do    36 centers at a time, making    1 passes.
 Calling FoFCou, ICntrl=  3107 FMM=F I1Cent=   0 AccDes= 0.00D+00.
 NEqPCM:  Using equilibrium solvation (IEInf=0, Eps=  78.3553, EpsInf=   1.7778)
 G2PCM: DoFxE=T DoFxN=T DoGrad=T DoDP/DQ/DG/TGxP=FFFF NFrqRd=   0 IEInf=0 SqF1=F DoCFld=F IF1Alg=4.
 End of G2Drv F.D. properties file   721 does not exist.
 End of G2Drv F.D. properties file   722 does not exist.
 End of G2Drv F.D. properties file   788 does not exist.
          IDoAtm=11111111111111111111111111111111111
 NEqPCM:  Using equilibrium solvation (IEInf=0, Eps=  78.3553, EpsInf=   1.7778)
          Differentiating once with respect to electric field.
                with respect to dipole field.
          Differentiating once with respect to nuclear coordinates.
          Electric field/nuclear overlap derivatives assumed to be zero.
 Keep J ints in memory in canonical form, NReq=14776093.
          There are   108 degrees of freedom in the 1st order CPHF.  IDoFFX=5 NUNeed=   108.
 LinEq1:  Iter=  0 NonCon=   108 RMS=2.08D-01 Max=5.24D+00 NDo=   108
 AX will form   108 AO Fock derivatives at one time.
 LinEq1:  Iter=  1 NonCon=   108 RMS=2.99D-02 Max=5.94D-01 NDo=   108
 LinEq1:  Iter=  2 NonCon=   108 RMS=7.59D-03 Max=1.69D-01 NDo=   108
 LinEq1:  Iter=  3 NonCon=   108 RMS=1.59D-03 Max=2.07D-02 NDo=   108
 LinEq1:  Iter=  4 NonCon=   108 RMS=3.30D-04 Max=6.07D-03 NDo=   108
 LinEq1:  Iter=  5 NonCon=   108 RMS=6.62D-05 Max=1.18D-03 NDo=   108
 LinEq1:  Iter=  6 NonCon=   108 RMS=1.27D-05 Max=2.28D-04 NDo=   108
 LinEq1:  Iter=  7 NonCon=    83 RMS=2.34D-06 Max=3.81D-05 NDo=   108
 LinEq1:  Iter=  8 NonCon=    37 RMS=4.57D-07 Max=8.59D-06 NDo=   108
 LinEq1:  Iter=  9 NonCon=     3 RMS=8.56D-08 Max=8.58D-07 NDo=   108
 LinEq1:  Iter= 10 NonCon=     2 RMS=1.48D-08 Max=2.36D-07 NDo=   108
 LinEq1:  Iter= 11 NonCon=     0 RMS=2.18D-09 Max=2.20D-08 NDo=   108
 Linear equations converged to 1.000D-08 1.000D-07 after    11 iterations.
 Isotropic polarizability for W=    0.000000      202.99 Bohr**3.
 End of Minotr F.D. properties file   721 does not exist.
 End of Minotr F.D. properties file   722 does not exist.
 End of Minotr F.D. properties file   788 does not exist.

 **********************************************************************

            Population analysis using the SCF density.

 **********************************************************************

 Orbital symmetries:
       Occupied  (A) (A) (A) (A) (A) (A) (A) (A) (A) (A) (A) (A)
                 (A) (A) (A) (A) (A) (A) (A) (A) (A) (A) (A) (A)
                 (A) (A) (A) (A) (A) (A) (A) (A) (A) (A) (A) (A)
                 (A) (A) (A) (A) (A) (A) (A) (A) (A) (A) (A) (A)
                 (A)
       Virtual   (A) (A) (A) (A) (A) (A) (A) (A) (A) (A) (A) (A)
                 (A) (A) (A) (A) (A) (A) (A) (A) (A) (A) (A) (A)
                 (A) (A) (A) (A) (A) (A) (A) (A) (A) (A) (A) (A)
                 (A) (A) (A) (A)
 The electronic state is 1-A.
 Alpha  occ. eigenvalues --   -1.23226  -1.18938  -1.18728  -1.15601  -1.13424
 Alpha  occ. eigenvalues --   -1.09295  -1.03948  -1.02244  -0.99300  -0.95828
 Alpha  occ. eigenvalues --   -0.90279  -0.88203  -0.84907  -0.81015  -0.77382
 Alpha  occ. eigenvalues --   -0.76629  -0.73513  -0.69235  -0.66652  -0.64744
 Alpha  occ. eigenvalues --   -0.63665  -0.62866  -0.61703  -0.60236  -0.59615
 Alpha  occ. eigenvalues --   -0.58081  -0.57193  -0.55865  -0.55562  -0.54457
 Alpha  occ. eigenvalues --   -0.54252  -0.52974  -0.52363  -0.52279  -0.51612
 Alpha  occ. eigenvalues --   -0.50794  -0.50565  -0.50320  -0.48990  -0.47885
 Alpha  occ. eigenvalues --   -0.47351  -0.46081  -0.43429  -0.42968  -0.42061
 Alpha  occ. eigenvalues --   -0.40055  -0.39256  -0.37724  -0.33458
 Alpha virt. eigenvalues --   -0.06020  -0.01763   0.01379   0.02371   0.02683
 Alpha virt. eigenvalues --    0.02888   0.03956   0.05966   0.08548   0.09120
 Alpha virt. eigenvalues --    0.10942   0.11514   0.12392   0.12911   0.13015
 Alpha virt. eigenvalues --    0.13718   0.15191   0.15231   0.15729   0.16696
 Alpha virt. eigenvalues --    0.17089   0.17349   0.17988   0.18070   0.18147
 Alpha virt. eigenvalues --    0.18321   0.18636   0.18893   0.19094   0.19099
 Alpha virt. eigenvalues --    0.19168   0.19447   0.19489   0.20185   0.20779
 Alpha virt. eigenvalues --    0.21578   0.21848   0.21957   0.22346   0.23459
          Condensed to atoms (all electrons):
               1          2          3          4          5          6
     1  C    3.331695   0.000000   0.000000   0.000000   0.000000   0.000000
     2  C    0.000000   4.514279   0.000000   0.000000   0.000000   0.000000
     3  C    0.000000   0.000000   4.055283   0.000000   0.000000   0.000000
     4  C    0.000000   0.000000   0.000000   3.415396   0.000000   0.000000
     5  H    0.000000   0.000000   0.000000   0.000000   0.789575   0.000000
     6  H    0.000000   0.000000   0.000000   0.000000   0.000000   0.818704
     7  C    0.000000   0.000000   0.000000   0.000000   0.000000   0.000000
     8  H    0.000000   0.000000   0.000000   0.000000   0.000000   0.000000
     9  H    0.000000   0.000000   0.000000   0.000000   0.000000   0.000000
    10  H    0.000000   0.000000   0.000000   0.000000   0.000000   0.000000
    11  N    0.000000   0.000000   0.000000   0.000000   0.000000   0.000000
    12  O    0.000000   0.000000   0.000000   0.000000   0.000000   0.000000
    13  O    0.000000   0.000000   0.000000   0.000000   0.000000   0.000000
    14  C    0.000000   0.000000   0.000000   0.000000   0.000000   0.000000
    15  H    0.000000   0.000000   0.000000   0.000000   0.000000   0.000000
    16  C    0.000000   0.000000   0.000000   0.000000   0.000000   0.000000
    17  H    0.000000   0.000000   0.000000   0.000000   0.000000   0.000000
    18  C    0.000000   0.000000   0.000000   0.000000   0.000000   0.000000
    19  H    0.000000   0.000000   0.000000   0.000000   0.000000   0.000000
    20  C    0.000000   0.000000   0.000000   0.000000   0.000000   0.000000
    21  H    0.000000   0.000000   0.000000   0.000000   0.000000   0.000000
    22  H    0.000000   0.000000   0.000000   0.000000   0.000000   0.000000
    23  H    0.000000   0.000000   0.000000   0.000000   0.000000   0.000000
    24  C    0.000000   0.000000   0.000000   0.000000   0.000000   0.000000
    25  H    0.000000   0.000000   0.000000   0.000000   0.000000   0.000000
    26  C    0.000000   0.000000   0.000000   0.000000   0.000000   0.000000
    27  H    0.000000   0.000000   0.000000   0.000000   0.000000   0.000000
    28  H    0.000000   0.000000   0.000000   0.000000   0.000000   0.000000
    29  C    0.000000   0.000000   0.000000   0.000000   0.000000   0.000000
    30  C    0.000000   0.000000   0.000000   0.000000   0.000000   0.000000
    31  H    0.000000   0.000000   0.000000   0.000000   0.000000   0.000000
    32  H    0.000000   0.000000   0.000000   0.000000   0.000000   0.000000
    33  H    0.000000   0.000000   0.000000   0.000000   0.000000   0.000000
    34  O    0.000000   0.000000   0.000000   0.000000   0.000000   0.000000
    35  O    0.000000   0.000000   0.000000   0.000000   0.000000   0.000000
               7          8          9         10         11         12
     1  C    0.000000   0.000000   0.000000   0.000000   0.000000   0.000000
     2  C    0.000000   0.000000   0.000000   0.000000   0.000000   0.000000
     3  C    0.000000   0.000000   0.000000   0.000000   0.000000   0.000000
     4  C    0.000000   0.000000   0.000000   0.000000   0.000000   0.000000
     5  H    0.000000   0.000000   0.000000   0.000000   0.000000   0.000000
     6  H    0.000000   0.000000   0.000000   0.000000   0.000000   0.000000
     7  C    4.257117   0.000000   0.000000   0.000000   0.000000   0.000000
     8  H    0.000000   0.837307   0.000000   0.000000   0.000000   0.000000
     9  H    0.000000   0.000000   0.830525   0.000000   0.000000   0.000000
    10  H    0.000000   0.000000   0.000000   0.841566   0.000000   0.000000
    11  N    0.000000   0.000000   0.000000   0.000000   5.491917   0.000000
    12  O    0.000000   0.000000   0.000000   0.000000   0.000000   6.549591
    13  O    0.000000   0.000000   0.000000   0.000000   0.000000   0.000000
    14  C    0.000000   0.000000   0.000000   0.000000   0.000000   0.000000
    15  H    0.000000   0.000000   0.000000   0.000000   0.000000   0.000000
    16  C    0.000000   0.000000   0.000000   0.000000   0.000000   0.000000
    17  H    0.000000   0.000000   0.000000   0.000000   0.000000   0.000000
    18  C    0.000000   0.000000   0.000000   0.000000   0.000000   0.000000
    19  H    0.000000   0.000000   0.000000   0.000000   0.000000   0.000000
    20  C    0.000000   0.000000   0.000000   0.000000   0.000000   0.000000
    21  H    0.000000   0.000000   0.000000   0.000000   0.000000   0.000000
    22  H    0.000000   0.000000   0.000000   0.000000   0.000000   0.000000
    23  H    0.000000   0.000000   0.000000   0.000000   0.000000   0.000000
    24  C    0.000000   0.000000   0.000000   0.000000   0.000000   0.000000
    25  H    0.000000   0.000000   0.000000   0.000000   0.000000   0.000000
    26  C    0.000000   0.000000   0.000000   0.000000   0.000000   0.000000
    27  H    0.000000   0.000000   0.000000   0.000000   0.000000   0.000000
    28  H    0.000000   0.000000   0.000000   0.000000   0.000000   0.000000
    29  C    0.000000   0.000000   0.000000   0.000000   0.000000   0.000000
    30  C    0.000000   0.000000   0.000000   0.000000   0.000000   0.000000
    31  H    0.000000   0.000000   0.000000   0.000000   0.000000   0.000000
    32  H    0.000000   0.000000   0.000000   0.000000   0.000000   0.000000
    33  H    0.000000   0.000000   0.000000   0.000000   0.000000   0.000000
    34  O    0.000000   0.000000   0.000000   0.000000   0.000000   0.000000
    35  O    0.000000   0.000000   0.000000   0.000000   0.000000   0.000000
              13         14         15         16         17         18
     1  C    0.000000   0.000000   0.000000   0.000000   0.000000   0.000000
     2  C    0.000000   0.000000   0.000000   0.000000   0.000000   0.000000
     3  C    0.000000   0.000000   0.000000   0.000000   0.000000   0.000000
     4  C    0.000000   0.000000   0.000000   0.000000   0.000000   0.000000
     5  H    0.000000   0.000000   0.000000   0.000000   0.000000   0.000000
     6  H    0.000000   0.000000   0.000000   0.000000   0.000000   0.000000
     7  C    0.000000   0.000000   0.000000   0.000000   0.000000   0.000000
     8  H    0.000000   0.000000   0.000000   0.000000   0.000000   0.000000
     9  H    0.000000   0.000000   0.000000   0.000000   0.000000   0.000000
    10  H    0.000000   0.000000   0.000000   0.000000   0.000000   0.000000
    11  N    0.000000   0.000000   0.000000   0.000000   0.000000   0.000000
    12  O    0.000000   0.000000   0.000000   0.000000   0.000000   0.000000
    13  O    6.560324   0.000000   0.000000   0.000000   0.000000   0.000000
    14  C    0.000000   4.336345   0.000000   0.000000   0.000000   0.000000
    15  H    0.000000   0.000000   0.815597   0.000000   0.000000   0.000000
    16  C    0.000000   0.000000   0.000000   3.945061   0.000000   0.000000
    17  H    0.000000   0.000000   0.000000   0.000000   0.841945   0.000000
    18  C    0.000000   0.000000   0.000000   0.000000   0.000000   3.841437
    19  H    0.000000   0.000000   0.000000   0.000000   0.000000   0.000000
    20  C    0.000000   0.000000   0.000000   0.000000   0.000000   0.000000
    21  H    0.000000   0.000000   0.000000   0.000000   0.000000   0.000000
    22  H    0.000000   0.000000   0.000000   0.000000   0.000000   0.000000
    23  H    0.000000   0.000000   0.000000   0.000000   0.000000   0.000000
    24  C    0.000000   0.000000   0.000000   0.000000   0.000000   0.000000
    25  H    0.000000   0.000000   0.000000   0.000000   0.000000   0.000000
    26  C    0.000000   0.000000   0.000000   0.000000   0.000000   0.000000
    27  H    0.000000   0.000000   0.000000   0.000000   0.000000   0.000000
    28  H    0.000000   0.000000   0.000000   0.000000   0.000000   0.000000
    29  C    0.000000   0.000000   0.000000   0.000000   0.000000   0.000000
    30  C    0.000000   0.000000   0.000000   0.000000   0.000000   0.000000
    31  H    0.000000   0.000000   0.000000   0.000000   0.000000   0.000000
    32  H    0.000000   0.000000   0.000000   0.000000   0.000000   0.000000
    33  H    0.000000   0.000000   0.000000   0.000000   0.000000   0.000000
    34  O    0.000000   0.000000   0.000000   0.000000   0.000000   0.000000
    35  O    0.000000   0.000000   0.000000   0.000000   0.000000   0.000000
              19         20         21         22         23         24
     1  C    0.000000   0.000000   0.000000   0.000000   0.000000   0.000000
     2  C    0.000000   0.000000   0.000000   0.000000   0.000000   0.000000
     3  C    0.000000   0.000000   0.000000   0.000000   0.000000   0.000000
     4  C    0.000000   0.000000   0.000000   0.000000   0.000000   0.000000
     5  H    0.000000   0.000000   0.000000   0.000000   0.000000   0.000000
     6  H    0.000000   0.000000   0.000000   0.000000   0.000000   0.000000
     7  C    0.000000   0.000000   0.000000   0.000000   0.000000   0.000000
     8  H    0.000000   0.000000   0.000000   0.000000   0.000000   0.000000
     9  H    0.000000   0.000000   0.000000   0.000000   0.000000   0.000000
    10  H    0.000000   0.000000   0.000000   0.000000   0.000000   0.000000
    11  N    0.000000   0.000000   0.000000   0.000000   0.000000   0.000000
    12  O    0.000000   0.000000   0.000000   0.000000   0.000000   0.000000
    13  O    0.000000   0.000000   0.000000   0.000000   0.000000   0.000000
    14  C    0.000000   0.000000   0.000000   0.000000   0.000000   0.000000
    15  H    0.000000   0.000000   0.000000   0.000000   0.000000   0.000000
    16  C    0.000000   0.000000   0.000000   0.000000   0.000000   0.000000
    17  H    0.000000   0.000000   0.000000   0.000000   0.000000   0.000000
    18  C    0.000000   0.000000   0.000000   0.000000   0.000000   0.000000
    19  H    0.861025   0.000000   0.000000   0.000000   0.000000   0.000000
    20  C    0.000000   4.546996   0.000000   0.000000   0.000000   0.000000
    21  H    0.000000   0.000000   0.805250   0.000000   0.000000   0.000000
    22  H    0.000000   0.000000   0.000000   0.816391   0.000000   0.000000
    23  H    0.000000   0.000000   0.000000   0.000000   0.803531   0.000000
    24  C    0.000000   0.000000   0.000000   0.000000   0.000000   4.283083
    25  H    0.000000   0.000000   0.000000   0.000000   0.000000   0.000000
    26  C    0.000000   0.000000   0.000000   0.000000   0.000000   0.000000
    27  H    0.000000   0.000000   0.000000   0.000000   0.000000   0.000000
    28  H    0.000000   0.000000   0.000000   0.000000   0.000000   0.000000
    29  C    0.000000   0.000000   0.000000   0.000000   0.000000   0.000000
    30  C    0.000000   0.000000   0.000000   0.000000   0.000000   0.000000
    31  H    0.000000   0.000000   0.000000   0.000000   0.000000   0.000000
    32  H    0.000000   0.000000   0.000000   0.000000   0.000000   0.000000
    33  H    0.000000   0.000000   0.000000   0.000000   0.000000   0.000000
    34  O    0.000000   0.000000   0.000000   0.000000   0.000000   0.000000
    35  O    0.000000   0.000000   0.000000   0.000000   0.000000   0.000000
              25         26         27         28         29         30
     1  C    0.000000   0.000000   0.000000   0.000000   0.000000   0.000000
     2  C    0.000000   0.000000   0.000000   0.000000   0.000000   0.000000
     3  C    0.000000   0.000000   0.000000   0.000000   0.000000   0.000000
     4  C    0.000000   0.000000   0.000000   0.000000   0.000000   0.000000
     5  H    0.000000   0.000000   0.000000   0.000000   0.000000   0.000000
     6  H    0.000000   0.000000   0.000000   0.000000   0.000000   0.000000
     7  C    0.000000   0.000000   0.000000   0.000000   0.000000   0.000000
     8  H    0.000000   0.000000   0.000000   0.000000   0.000000   0.000000
     9  H    0.000000   0.000000   0.000000   0.000000   0.000000   0.000000
    10  H    0.000000   0.000000   0.000000   0.000000   0.000000   0.000000
    11  N    0.000000   0.000000   0.000000   0.000000   0.000000   0.000000
    12  O    0.000000   0.000000   0.000000   0.000000   0.000000   0.000000
    13  O    0.000000   0.000000   0.000000   0.000000   0.000000   0.000000
    14  C    0.000000   0.000000   0.000000   0.000000   0.000000   0.000000
    15  H    0.000000   0.000000   0.000000   0.000000   0.000000   0.000000
    16  C    0.000000   0.000000   0.000000   0.000000   0.000000   0.000000
    17  H    0.000000   0.000000   0.000000   0.000000   0.000000   0.000000
    18  C    0.000000   0.000000   0.000000   0.000000   0.000000   0.000000
    19  H    0.000000   0.000000   0.000000   0.000000   0.000000   0.000000
    20  C    0.000000   0.000000   0.000000   0.000000   0.000000   0.000000
    21  H    0.000000   0.000000   0.000000   0.000000   0.000000   0.000000
    22  H    0.000000   0.000000   0.000000   0.000000   0.000000   0.000000
    23  H    0.000000   0.000000   0.000000   0.000000   0.000000   0.000000
    24  C    0.000000   0.000000   0.000000   0.000000   0.000000   0.000000
    25  H    0.815458   0.000000   0.000000   0.000000   0.000000   0.000000
    26  C    0.000000   3.992195   0.000000   0.000000   0.000000   0.000000
    27  H    0.000000   0.000000   0.842072   0.000000   0.000000   0.000000
    28  H    0.000000   0.000000   0.000000   0.841290   0.000000   0.000000
    29  C    0.000000   0.000000   0.000000   0.000000   3.277031   0.000000
    30  C    0.000000   0.000000   0.000000   0.000000   0.000000   4.658843
    31  H    0.000000   0.000000   0.000000   0.000000   0.000000   0.000000
    32  H    0.000000   0.000000   0.000000   0.000000   0.000000   0.000000
    33  H    0.000000   0.000000   0.000000   0.000000   0.000000   0.000000
    34  O    0.000000   0.000000   0.000000   0.000000   0.000000   0.000000
    35  O    0.000000   0.000000   0.000000   0.000000   0.000000   0.000000
              31         32         33         34         35
     1  C    0.000000   0.000000   0.000000   0.000000   0.000000
     2  C    0.000000   0.000000   0.000000   0.000000   0.000000
     3  C    0.000000   0.000000   0.000000   0.000000   0.000000
     4  C    0.000000   0.000000   0.000000   0.000000   0.000000
     5  H    0.000000   0.000000   0.000000   0.000000   0.000000
     6  H    0.000000   0.000000   0.000000   0.000000   0.000000
     7  C    0.000000   0.000000   0.000000   0.000000   0.000000
     8  H    0.000000   0.000000   0.000000   0.000000   0.000000
     9  H    0.000000   0.000000   0.000000   0.000000   0.000000
    10  H    0.000000   0.000000   0.000000   0.000000   0.000000
    11  N    0.000000   0.000000   0.000000   0.000000   0.000000
    12  O    0.000000   0.000000   0.000000   0.000000   0.000000
    13  O    0.000000   0.000000   0.000000   0.000000   0.000000
    14  C    0.000000   0.000000   0.000000   0.000000   0.000000
    15  H    0.000000   0.000000   0.000000   0.000000   0.000000
    16  C    0.000000   0.000000   0.000000   0.000000   0.000000
    17  H    0.000000   0.000000   0.000000   0.000000   0.000000
    18  C    0.000000   0.000000   0.000000   0.000000   0.000000
    19  H    0.000000   0.000000   0.000000   0.000000   0.000000
    20  C    0.000000   0.000000   0.000000   0.000000   0.000000
    21  H    0.000000   0.000000   0.000000   0.000000   0.000000
    22  H    0.000000   0.000000   0.000000   0.000000   0.000000
    23  H    0.000000   0.000000   0.000000   0.000000   0.000000
    24  C    0.000000   0.000000   0.000000   0.000000   0.000000
    25  H    0.000000   0.000000   0.000000   0.000000   0.000000
    26  C    0.000000   0.000000   0.000000   0.000000   0.000000
    27  H    0.000000   0.000000   0.000000   0.000000   0.000000
    28  H    0.000000   0.000000   0.000000   0.000000   0.000000
    29  C    0.000000   0.000000   0.000000   0.000000   0.000000
    30  C    0.000000   0.000000   0.000000   0.000000   0.000000
    31  H    0.775823   0.000000   0.000000   0.000000   0.000000
    32  H    0.000000   0.781957   0.000000   0.000000   0.000000
    33  H    0.000000   0.000000   0.765035   0.000000   0.000000
    34  O    0.000000   0.000000   0.000000   6.492686   0.000000
    35  O    0.000000   0.000000   0.000000   0.000000   6.567672
 Mulliken charges:
               1
     1  C    0.668305
     2  C   -0.514279
     3  C   -0.055283
     4  C    0.584604
     5  H    0.210425
     6  H    0.181296
     7  C   -0.257117
     8  H    0.162693
     9  H    0.169475
    10  H    0.158434
    11  N   -0.491917
    12  O   -0.549591
    13  O   -0.560324
    14  C   -0.336345
    15  H    0.184403
    16  C    0.054939
    17  H    0.158055
    18  C    0.158563
    19  H    0.138975
    20  C   -0.546996
    21  H    0.194750
    22  H    0.183609
    23  H    0.196469
    24  C   -0.283083
    25  H    0.184542
    26  C    0.007805
    27  H    0.157928
    28  H    0.158710
    29  C    0.722969
    30  C   -0.658843
    31  H    0.224177
    32  H    0.218043
    33  H    0.234965
    34  O   -0.492686
    35  O   -0.567672
 Sum of Mulliken charges =   0.00000
 Mulliken charges with hydrogens summed into heavy atoms:
               1
     1  C    0.668305
     2  C   -0.303854
     3  C    0.126013
     4  C    0.584604
     7  C    0.233484
    11  N   -0.491917
    12  O   -0.549591
    13  O   -0.560324
    14  C   -0.151942
    16  C    0.212994
    18  C    0.297538
    20  C    0.027833
    24  C   -0.098540
    26  C    0.324443
    29  C    0.722969
    30  C    0.018343
    34  O   -0.492686
    35  O   -0.567672
 APT charges:
               1
     1  C    2.527823
     2  C   -1.272138
     3  C    0.592397
     4  C    1.881527
     5  H    0.251730
     6  H    0.114354
     7  C   -0.319402
     8  H    0.198205
     9  H    0.219063
    10  H    0.174814
    11  N   -1.557242
    12  O   -1.258805
    13  O   -1.322211
    14  C   -0.889628
    15  H    0.288904
    16  C    0.618475
    17  H    0.273434
    18  C    0.577685
    19  H    0.100274
    20  C   -1.067185
    21  H    0.284953
    22  H    0.268263
    23  H    0.303321
    24  C   -1.457261
    25  H    0.259748
    26  C    0.368618
    27  H    0.139749
    28  H    0.188307
    29  C    2.111720
    30  C   -1.236457
    31  H    0.330991
    32  H    0.312137
    33  H    0.394131
    34  O   -1.217886
    35  O   -1.182378
 Sum of APT charges =   0.00003
 APT charges with hydrogens summed into heavy atoms:
               1
     1  C    2.527823
     2  C   -1.020408
     3  C    0.706751
     4  C    1.881527
     7  C    0.272681
    11  N   -1.557242
    12  O   -1.258805
    13  O   -1.322211
    14  C   -0.600723
    16  C    0.891910
    18  C    0.677959
    20  C   -0.210647
    24  C   -1.197513
    26  C    0.696675
    29  C    2.111720
    30  C   -0.199198
    34  O   -1.217886
    35  O   -1.182378
 Charge=              0.0000 electrons
 Dipole moment (field-independent basis, Debye):
    X=             -2.7557    Y=             -0.6322    Z=              5.1677  Tot=              5.8906
 N-N= 7.879964786482D+02 E-N=-1.445838493180D+03  KE=-6.374965226658D+01
  Exact polarizability: 260.224   5.117 226.122  10.098 -11.530 122.628
 Approx polarizability: 148.913   2.780 110.894   7.373   4.582  71.994
 D2PCM: C-PCM CHGder 2nd derivatives, FixD1E=F FixD2E=F DoIter=F DoCFld=F I1PDM=0
 Calling FoFJK, ICntrl=    100127 FMM=F ISym2X=0 I1Cent= 0 IOpClX= 0 NMat=1 NMatS=1 NMatT=0.
 Full mass-weighted force constant matrix:
 Low frequencies --- -787.2885   -6.2016   -0.1201   -0.0560    0.0542    4.8082
 Low frequencies ---    7.9581   20.1466   39.8778
 ******    1 imaginary frequencies (negative Signs) ****** 
 Diagonal vibrational polarizability:
      244.1876845     637.7984771     874.4807485
 Harmonic frequencies (cm**-1), IR intensities (KM/Mole), Raman scattering
 activities (A**4/AMU), depolarization ratios for plane and unpolarized
 incident light, reduced masses (AMU), force constants (mDyne/A),
 and normal coordinates:
                      1                      2                      3
                      A                      A                      A
 Frequencies --   -787.2884                19.8136                39.8459
 Red. masses --      7.6043                 4.3202                 5.2520
 Frc consts  --      2.7770                 0.0010                 0.0049
 IR Inten    --   2049.8693                14.6133                 0.7325
  Atom  AN      X      Y      Z        X      Y      Z        X      Y      Z
     1   6     0.04  -0.07  -0.04    -0.02   0.02   0.02     0.07  -0.02  -0.09
     2   6    -0.13  -0.09   0.15     0.00   0.05   0.00     0.11  -0.02   0.00
     3   6     0.13  -0.23   0.41    -0.01   0.07   0.00     0.08   0.01   0.08
     4   6    -0.01  -0.01   0.02    -0.04   0.05   0.03     0.00  -0.01   0.11
     5   1     0.09   0.14  -0.11     0.01   0.06  -0.02     0.17  -0.03  -0.02
     6   1    -0.10   0.24  -0.28    -0.01   0.10   0.00     0.11   0.03   0.13
     7   6     0.01  -0.01  -0.01    -0.07   0.00   0.08    -0.07  -0.04  -0.04
     8   1    -0.01   0.00   0.00    -0.08   0.01   0.11     0.06  -0.06   0.19
     9   1     0.01  -0.03  -0.01    -0.07  -0.01   0.07     0.04   0.07  -0.28
    10   1     0.00  -0.01  -0.01    -0.08  -0.04   0.07    -0.34  -0.13  -0.06
    11   7     0.03  -0.01  -0.01    -0.05   0.02   0.05     0.00  -0.02  -0.01
    12   8     0.01   0.01   0.00    -0.05   0.06   0.04    -0.04  -0.02   0.22
    13   8     0.00   0.01   0.00    -0.03  -0.01   0.03     0.08  -0.02  -0.21
    14   6     0.10  -0.02   0.01     0.06   0.03  -0.07     0.00   0.03   0.06
    15   1    -0.04  -0.08   0.12     0.09   0.04  -0.09    -0.02   0.02   0.08
    16   6    -0.08  -0.07  -0.07     0.05   0.05  -0.04     0.01  -0.02   0.09
    17   1     0.04  -0.03   0.17     0.07   0.08  -0.04    -0.01  -0.05   0.10
    18   6     0.00   0.12  -0.07     0.04   0.00  -0.06     0.02   0.08   0.01
    19   1    -0.01  -0.03   0.13     0.01  -0.02  -0.03     0.03   0.08   0.00
    20   6     0.03   0.02  -0.02     0.06  -0.03  -0.08     0.02   0.12  -0.02
    21   1    -0.05   0.00   0.00     0.03  -0.03  -0.04     0.08   0.13  -0.09
    22   1     0.00   0.00  -0.01     0.09   0.01  -0.11     0.02   0.08   0.02
    23   1     0.05   0.02   0.02     0.07  -0.09  -0.10    -0.03   0.19  -0.02
    24   6    -0.10   0.33  -0.36     0.01   0.05  -0.01     0.05  -0.02   0.09
    25   1     0.04  -0.16   0.24     0.00   0.02  -0.01     0.06   0.00   0.08
    26   6    -0.03   0.01  -0.04     0.00   0.07   0.02     0.06  -0.06   0.07
    27   1    -0.17  -0.08  -0.05    -0.05   0.15   0.09     0.08  -0.10   0.03
    28   1     0.05   0.00   0.04     0.01   0.08  -0.08     0.08  -0.07   0.11
    29   6     0.00   0.00   0.00     0.01  -0.10  -0.01    -0.10   0.01  -0.09
    30   6     0.00   0.00   0.00    -0.10  -0.02  -0.27    -0.11   0.02  -0.11
    31   1     0.00   0.00   0.00     0.04   0.19  -0.39     0.05   0.04  -0.21
    32   1     0.00   0.00   0.00    -0.31  -0.09  -0.45    -0.29   0.05  -0.20
    33   1    -0.01   0.00   0.00    -0.13  -0.10  -0.18    -0.11  -0.03   0.08
    34   8     0.00   0.00   0.01     0.06  -0.05   0.13     0.03  -0.04   0.03
    35   8     0.00   0.00   0.00     0.08  -0.22   0.12    -0.18   0.04  -0.16
                      4                      5                      6
                      A                      A                      A
 Frequencies --     55.5094                61.4414                66.8975
 Red. masses --      2.6540                 1.2582                 4.0912
 Frc consts  --      0.0048                 0.0028                 0.0108
 IR Inten    --      3.2923                 1.2064                29.8416
  Atom  AN      X      Y      Z        X      Y      Z        X      Y      Z
     1   6     0.00   0.00  -0.05     0.01   0.00  -0.03     0.06   0.06  -0.03
     2   6     0.01   0.02  -0.04     0.02   0.01  -0.02     0.06   0.09  -0.04
     3   6     0.01   0.02  -0.02     0.01   0.01   0.00     0.05   0.05   0.02
     4   6    -0.02   0.01   0.02    -0.01   0.00   0.02     0.04   0.06   0.03
     5   1     0.02   0.00  -0.02     0.03   0.00  -0.01     0.05   0.04   0.02
     6   1     0.01   0.05  -0.03     0.02   0.03   0.01     0.06   0.08   0.00
     7   6    -0.06  -0.05   0.04    -0.01   0.00  -0.01     0.05   0.08  -0.05
     8   1     0.15  -0.08   0.41    -0.32   0.08  -0.46     0.08   0.07  -0.02
     9   1     0.09   0.16  -0.28    -0.21  -0.31   0.41     0.07   0.10  -0.10
    10   1    -0.45  -0.24   0.01     0.49   0.22   0.02    -0.01   0.10  -0.05
    11   7    -0.02  -0.01   0.00    -0.01  -0.01   0.01     0.05   0.07   0.00
    12   8    -0.03   0.00   0.05    -0.02   0.00   0.05     0.04   0.04   0.06
    13   8     0.00  -0.01  -0.07     0.01   0.00  -0.05     0.06   0.07  -0.03
    14   6    -0.05   0.01   0.00    -0.02   0.00   0.00     0.01  -0.06  -0.04
    15   1    -0.08   0.01   0.01    -0.04   0.01   0.00     0.08  -0.07  -0.04
    16   6    -0.03   0.00  -0.07    -0.01  -0.01  -0.03    -0.01   0.04  -0.08
    17   1    -0.05   0.00  -0.12    -0.02  -0.01  -0.04     0.02   0.08  -0.11
    18   6    -0.03   0.01   0.07    -0.01   0.01   0.02    -0.05  -0.19   0.04
    19   1     0.03   0.04   0.03     0.02   0.02   0.01    -0.08  -0.12  -0.05
    20   6    -0.07   0.03   0.17    -0.03   0.02   0.06    -0.04  -0.31   0.12
    21   1    -0.01   0.02   0.05     0.01   0.02   0.00    -0.02  -0.39  -0.12
    22   1    -0.15  -0.10   0.29    -0.06  -0.03   0.11    -0.04  -0.52   0.30
    23   1    -0.08   0.21   0.26    -0.04   0.11   0.09    -0.06  -0.09   0.22
    24   6     0.00   0.00  -0.07     0.00  -0.01  -0.02    -0.05   0.04  -0.06
    25   1     0.02  -0.01  -0.04     0.01  -0.01  -0.01    -0.07  -0.01  -0.04
    26   6     0.01  -0.03  -0.07     0.01  -0.02  -0.01    -0.06   0.01   0.01
    27   1     0.00  -0.05  -0.08     0.00  -0.04  -0.02    -0.11   0.00   0.03
    28   1     0.01  -0.03  -0.05     0.01  -0.03   0.00    -0.03   0.01   0.03
    29   6     0.08   0.00   0.01     0.01   0.00   0.00    -0.06   0.00   0.00
    30   6     0.02   0.01   0.00    -0.02   0.01  -0.01    -0.03  -0.01   0.00
    31   1     0.06   0.03  -0.03     0.03   0.03  -0.05     0.00  -0.02  -0.02
    32   1    -0.05   0.04  -0.02    -0.09   0.03  -0.04    -0.05  -0.01  -0.02
    33   1     0.00  -0.04   0.05    -0.03  -0.03   0.05    -0.02   0.01   0.03
    34   8     0.01   0.00  -0.08     0.01  -0.01  -0.02    -0.02  -0.01   0.05
    35   8     0.17   0.00   0.08     0.05   0.01   0.02    -0.11  -0.01  -0.03
                      7                      8                      9
                      A                      A                      A
 Frequencies --     80.5694                87.7265                93.7925
 Red. masses --      2.8913                 2.3948                 1.4211
 Frc consts  --      0.0111                 0.0109                 0.0074
 IR Inten    --     14.2303                13.2387                 2.7380
  Atom  AN      X      Y      Z        X      Y      Z        X      Y      Z
     1   6     0.04  -0.03  -0.05     0.02   0.00   0.01     0.01  -0.01   0.00
     2   6     0.06   0.01  -0.07     0.00  -0.01   0.00     0.00  -0.01  -0.02
     3   6     0.05   0.01  -0.05     0.01  -0.04  -0.02     0.01  -0.03  -0.03
     4   6     0.03   0.01  -0.05     0.04  -0.04  -0.02     0.03  -0.02  -0.04
     5   1     0.07   0.00  -0.06    -0.02  -0.01   0.00    -0.02  -0.01  -0.01
     6   1     0.06   0.02  -0.03     0.00  -0.06  -0.02     0.00  -0.05  -0.03
     7   6    -0.04  -0.16   0.22     0.09   0.00   0.00     0.05  -0.04   0.05
     8   1    -0.15  -0.08   0.26     0.13  -0.02   0.03     0.06  -0.03   0.09
     9   1    -0.09  -0.22   0.36     0.10   0.05  -0.02     0.05   0.00   0.07
    10   1     0.09  -0.30   0.22     0.05  -0.01   0.00     0.06  -0.09   0.05
    11   7     0.01  -0.05   0.02     0.05  -0.01   0.00     0.03  -0.02  -0.01
    12   8     0.03   0.05  -0.10     0.05  -0.04  -0.04     0.04  -0.02  -0.07
    13   8     0.04  -0.03  -0.07     0.02   0.02   0.03     0.01   0.01   0.02
    14   6    -0.01   0.04   0.03    -0.03  -0.02  -0.03    -0.02   0.00   0.01
    15   1     0.00   0.02   0.05    -0.05  -0.01  -0.04    -0.02  -0.01   0.02
    16   6    -0.02   0.05   0.02    -0.02  -0.04  -0.03    -0.02  -0.01   0.01
    17   1    -0.01   0.05   0.05    -0.03  -0.05  -0.04    -0.02  -0.01   0.02
    18   6    -0.02   0.03   0.01    -0.01   0.00   0.00    -0.02   0.00   0.00
    19   1    -0.02   0.06  -0.03     0.02  -0.01   0.01    -0.02   0.01  -0.01
    20   6    -0.02   0.01   0.02    -0.03   0.04   0.03    -0.02   0.01  -0.01
    21   1     0.05  -0.01  -0.15    -0.01   0.06   0.04    -0.01   0.01  -0.02
    22   1    -0.03  -0.12   0.14    -0.07   0.04   0.03    -0.02   0.00   0.00
    23   1    -0.08   0.19   0.07    -0.03   0.06   0.04    -0.03   0.02   0.00
    24   6    -0.02   0.07  -0.02     0.00  -0.05  -0.02    -0.02   0.00  -0.01
    25   1    -0.04   0.08  -0.04    -0.01  -0.05  -0.03    -0.02   0.01  -0.02
    26   6    -0.03   0.06   0.02    -0.01  -0.06   0.03    -0.02   0.00   0.01
    27   1    -0.06   0.07   0.04    -0.04  -0.11   0.02    -0.04   0.00   0.02
    28   1    -0.02   0.06   0.00    -0.02  -0.08   0.11    -0.02   0.00   0.01
    29   6    -0.02  -0.01   0.01    -0.04   0.06   0.01    -0.02   0.03   0.02
    30   6     0.05  -0.02   0.01    -0.20   0.10  -0.09    -0.05   0.04   0.01
    31   1    -0.18  -0.05   0.16    -0.56   0.23   0.13     0.41   0.06  -0.30
    32   1     0.31  -0.10   0.12     0.10   0.01   0.04    -0.54   0.15  -0.23
    33   1     0.05   0.08  -0.26    -0.28   0.11  -0.54    -0.03  -0.10   0.53
    34   8    -0.01   0.01   0.05     0.05  -0.01   0.06     0.00   0.01   0.03
    35   8    -0.09  -0.03  -0.03     0.03   0.07   0.06    -0.01   0.04   0.02
                     10                     11                     12
                      A                      A                      A
 Frequencies --    102.8097               112.5968               129.8270
 Red. masses --      4.5720                 1.3099                 4.0995
 Frc consts  --      0.0285                 0.0098                 0.0407
 IR Inten    --      3.7366                 7.9980                 6.1568
  Atom  AN      X      Y      Z        X      Y      Z        X      Y      Z
     1   6     0.02   0.04  -0.03     0.00   0.01  -0.03    -0.10   0.07  -0.02
     2   6    -0.01   0.00   0.02    -0.01   0.00  -0.01    -0.16  -0.05   0.06
     3   6    -0.01  -0.04   0.04    -0.01   0.00  -0.01    -0.13  -0.07  -0.02
     4   6     0.02  -0.03   0.04    -0.01   0.00  -0.01    -0.06  -0.08  -0.01
     5   1    -0.03  -0.02   0.04    -0.02  -0.01   0.00    -0.21  -0.01   0.03
     6   1    -0.01  -0.08   0.05    -0.01   0.00  -0.02    -0.16  -0.11  -0.05
     7   6     0.06  -0.02   0.10     0.00  -0.02   0.03     0.06   0.01   0.07
     8   1     0.04  -0.01   0.10    -0.02  -0.01   0.03     0.09  -0.01   0.06
     9   1     0.04  -0.01   0.16    -0.01  -0.02   0.05     0.05   0.08   0.13
    10   1     0.12  -0.07   0.10     0.02  -0.04   0.03     0.12  -0.02   0.07
    11   7     0.03   0.00   0.03     0.00   0.00  -0.01    -0.04   0.00   0.00
    12   8     0.03  -0.05   0.05     0.00  -0.01   0.00    -0.02  -0.13   0.00
    13   8     0.03   0.12  -0.12     0.00   0.05  -0.07    -0.07   0.22  -0.17
    14   6    -0.04  -0.03   0.16     0.01   0.00  -0.02     0.09  -0.03  -0.02
    15   1     0.01  -0.08   0.25     0.00   0.01  -0.03     0.07  -0.02  -0.01
    16   6    -0.06   0.00   0.18     0.01   0.00  -0.04     0.08  -0.03  -0.02
    17   1    -0.05  -0.03   0.24     0.01   0.01  -0.05     0.10   0.00  -0.03
    18   6    -0.08  -0.05   0.00     0.02   0.00   0.03     0.10   0.01  -0.02
    19   1    -0.18   0.01  -0.07     0.04   0.00   0.02     0.12  -0.01   0.01
    20   6    -0.01  -0.15  -0.13     0.00  -0.01   0.08     0.08  -0.01   0.04
    21   1    -0.12  -0.18  -0.01    -0.24   0.04   0.59     0.21  -0.07  -0.32
    22   1     0.15  -0.01  -0.26     0.00   0.37  -0.26     0.03  -0.31   0.32
    23   1     0.02  -0.39  -0.24     0.23  -0.53  -0.02    -0.02   0.39   0.18
    24   6    -0.03   0.03   0.08     0.00   0.00  -0.02     0.04  -0.04   0.02
    25   1     0.01   0.08   0.08    -0.01  -0.01  -0.02     0.01  -0.07   0.01
    26   6     0.00   0.03  -0.05    -0.01   0.01   0.01     0.01   0.05   0.01
    27   1     0.11   0.00  -0.11    -0.03   0.02   0.02     0.01   0.14   0.07
    28   1     0.01   0.03  -0.03    -0.01   0.01   0.00    -0.04   0.07  -0.07
    29   6     0.02   0.03  -0.06     0.00   0.00   0.01     0.02   0.01   0.02
    30   6    -0.02   0.05  -0.11     0.01  -0.01   0.02     0.05   0.01   0.01
    31   1    -0.09   0.10  -0.07     0.01  -0.01   0.02     0.05   0.00   0.00
    32   1     0.04   0.01  -0.10     0.01   0.00   0.02     0.05   0.00   0.00
    33   1    -0.03   0.05  -0.21     0.01   0.00   0.02     0.05   0.02   0.01
    34   8    -0.12   0.08  -0.18     0.02  -0.01   0.04     0.07   0.01   0.08
    35   8     0.13  -0.02   0.06    -0.03   0.00  -0.01    -0.03   0.00  -0.02
                     13                     14                     15
                      A                      A                      A
 Frequencies --    156.4399               177.6261               191.7909
 Red. masses --      7.2053                 5.9152                 5.5877
 Frc consts  --      0.1039                 0.1100                 0.1211
 IR Inten    --     11.6948                 4.2348                 7.0916
  Atom  AN      X      Y      Z        X      Y      Z        X      Y      Z
     1   6    -0.01   0.05   0.04     0.04  -0.03   0.03     0.00  -0.06   0.06
     2   6     0.00   0.02   0.14     0.05  -0.02   0.04     0.01   0.00  -0.05
     3   6     0.00   0.05   0.14     0.03  -0.02   0.07     0.01  -0.02  -0.03
     4   6    -0.03   0.12   0.00     0.03  -0.01   0.05    -0.01  -0.07   0.07
     5   1     0.03  -0.01   0.15     0.07  -0.01   0.01     0.00   0.03  -0.07
     6   1     0.00   0.06   0.14     0.05  -0.03   0.11     0.01   0.01  -0.04
     7   6    -0.12   0.04   0.04     0.02   0.01  -0.03     0.02   0.04  -0.11
     8   1    -0.15   0.06   0.03     0.07  -0.04  -0.10     0.16  -0.11  -0.31
     9   1    -0.12  -0.01   0.01     0.05   0.01  -0.11     0.09   0.05  -0.32
    10   1    -0.15   0.07   0.04    -0.04   0.14  -0.02    -0.16   0.41  -0.09
    11   7    -0.06   0.04   0.10     0.01  -0.08   0.15    -0.05  -0.24   0.40
    12   8    -0.01   0.29  -0.31     0.04   0.06  -0.09     0.02  -0.02  -0.07
    13   8     0.01   0.11  -0.16     0.06   0.00  -0.09     0.02   0.02  -0.08
    14   6     0.00  -0.05   0.04     0.11  -0.06  -0.17    -0.09   0.06   0.00
    15   1    -0.01  -0.05   0.03     0.10   0.02  -0.31    -0.08   0.06  -0.01
    16   6     0.01  -0.08   0.03     0.08  -0.05  -0.07    -0.06   0.04  -0.02
    17   1    -0.01  -0.10   0.03     0.14   0.06  -0.12    -0.09   0.01  -0.05
    18   6     0.01  -0.04   0.02     0.15  -0.05   0.00    -0.11   0.01   0.00
    19   1    -0.02  -0.06   0.04     0.26  -0.13   0.11    -0.15   0.02  -0.01
    20   6     0.03  -0.05  -0.03     0.07   0.13   0.10    -0.09  -0.02  -0.04
    21   1     0.05  -0.07  -0.10     0.15   0.21   0.18    -0.11  -0.04  -0.04
    22   1     0.07  -0.08  -0.01    -0.10   0.15   0.08    -0.04  -0.01  -0.06
    23   1    -0.02  -0.02  -0.05     0.08   0.19   0.14    -0.10  -0.06  -0.07
    24   6     0.06  -0.09   0.04    -0.07  -0.07   0.09     0.01   0.02  -0.03
    25   1     0.11  -0.06   0.07    -0.14  -0.17   0.07     0.03   0.03  -0.01
    26   6     0.10  -0.21   0.02    -0.11   0.06   0.04     0.01   0.05  -0.02
    27   1     0.10  -0.31  -0.04     0.05   0.07  -0.02    -0.04   0.10   0.04
    28   1     0.14  -0.23   0.11    -0.16   0.07   0.03    -0.02   0.06  -0.06
    29   6     0.01  -0.05  -0.01    -0.10   0.01   0.00     0.06   0.04   0.00
    30   6    -0.13  -0.06   0.08    -0.03   0.01  -0.02     0.11   0.04  -0.06
    31   1    -0.11  -0.05   0.07     0.03   0.00  -0.06     0.14   0.06  -0.08
    32   1    -0.21   0.04   0.10    -0.05  -0.02  -0.06     0.11   0.00  -0.09
    33   1    -0.17  -0.16   0.13     0.00   0.05   0.03     0.13   0.08  -0.05
    34   8     0.07  -0.16  -0.04    -0.30   0.13  -0.14     0.12   0.04   0.09
    35   8     0.07   0.06  -0.04    -0.05  -0.09   0.11    -0.01   0.01  -0.03
                     16                     17                     18
                      A                      A                      A
 Frequencies --    229.7818               235.6559               257.6927
 Red. masses --      3.8282                 3.7212                 3.4134
 Frc consts  --      0.1191                 0.1218                 0.1336
 IR Inten    --      0.1233                 2.8272                11.3321
  Atom  AN      X      Y      Z        X      Y      Z        X      Y      Z
     1   6    -0.02  -0.02  -0.01     0.00   0.02  -0.02    -0.04  -0.03  -0.01
     2   6    -0.02   0.00  -0.07     0.01   0.08  -0.12     0.01  -0.01   0.03
     3   6    -0.01   0.00  -0.07     0.01   0.06  -0.12     0.00   0.01   0.04
     4   6    -0.01  -0.04  -0.02    -0.01   0.03  -0.01    -0.05   0.01   0.00
     5   1    -0.01   0.05  -0.13    -0.01   0.05  -0.07     0.03  -0.03   0.04
     6   1    -0.01  -0.01  -0.08     0.01   0.09  -0.13     0.01   0.03   0.04
     7   6     0.06   0.00  -0.02     0.03   0.04   0.00     0.29   0.10   0.09
     8   1     0.13  -0.06  -0.06     0.08  -0.01  -0.04     0.51  -0.05   0.08
     9   1     0.08   0.06  -0.04     0.05   0.07  -0.04     0.30   0.41   0.23
    10   1     0.05   0.08  -0.01     0.00   0.11   0.00     0.41   0.05   0.10
    11   7    -0.02  -0.08   0.08    -0.02  -0.03   0.10    -0.06   0.00  -0.03
    12   8    -0.01  -0.05   0.01    -0.03   0.02   0.05    -0.13   0.10   0.02
    13   8    -0.02  -0.02   0.01     0.00   0.02   0.02    -0.04  -0.18  -0.11
    14   6     0.07   0.17  -0.03     0.04  -0.17   0.19    -0.01   0.01  -0.02
    15   1     0.08   0.15  -0.01     0.01  -0.28   0.41     0.00   0.03  -0.07
    16   6     0.04   0.15   0.03     0.04  -0.07   0.05    -0.01   0.01  -0.02
    17   1     0.06   0.15   0.07     0.06  -0.08   0.15    -0.02   0.02  -0.06
    18   6     0.05   0.16  -0.07     0.09  -0.06   0.05    -0.03  -0.03   0.03
    19   1    -0.02   0.19  -0.12     0.16   0.04  -0.06    -0.04  -0.06   0.07
    20   6     0.07  -0.10   0.06     0.10   0.09  -0.03    -0.02   0.00  -0.01
    21   1    -0.12  -0.24   0.00     0.19   0.17   0.00     0.01   0.03   0.00
    22   1     0.12  -0.19   0.14     0.08   0.15  -0.08    -0.01   0.03  -0.04
    23   1     0.22  -0.12   0.16     0.01   0.09  -0.10    -0.06  -0.01  -0.05
    24   6     0.02   0.15   0.04    -0.04   0.02  -0.16     0.00  -0.01   0.01
    25   1     0.06   0.19   0.03    -0.09   0.02  -0.20     0.01  -0.02   0.03
    26   6     0.07  -0.03   0.03    -0.08   0.06  -0.11     0.01   0.02  -0.01
    27   1     0.06  -0.15  -0.04    -0.14   0.18  -0.02     0.02   0.06   0.01
    28   1     0.20  -0.06   0.10    -0.10   0.08  -0.22    -0.02   0.03  -0.06
    29   6    -0.05  -0.06   0.00    -0.03  -0.04   0.00     0.01   0.00  -0.01
    30   6    -0.17  -0.08   0.10    -0.10  -0.05   0.08     0.01  -0.01   0.00
    31   1    -0.21  -0.10   0.14    -0.15  -0.07   0.11     0.00  -0.01   0.01
    32   1    -0.19   0.03   0.17    -0.10   0.02   0.13     0.03   0.00   0.01
    33   1    -0.22  -0.16   0.11    -0.13  -0.09   0.07     0.01   0.00   0.00
    34   8    -0.08  -0.09  -0.08     0.00  -0.07   0.00     0.02   0.00   0.01
    35   8     0.03   0.01   0.00     0.00   0.02  -0.01     0.01   0.00  -0.01
                     19                     20                     21
                      A                      A                      A
 Frequencies --    278.7786               311.2635               342.1017
 Red. masses --      2.5513                 2.3045                 2.6635
 Frc consts  --      0.1168                 0.1315                 0.1837
 IR Inten    --      9.2855                30.3999                27.4036
  Atom  AN      X      Y      Z        X      Y      Z        X      Y      Z
     1   6     0.00  -0.03   0.01     0.03  -0.01   0.02     0.01   0.00   0.02
     2   6    -0.02  -0.03   0.05     0.02  -0.04   0.06     0.01  -0.03   0.05
     3   6    -0.01  -0.02  -0.01     0.01  -0.02   0.06     0.01   0.01   0.00
     4   6     0.01  -0.01  -0.01     0.02  -0.01   0.02     0.01   0.00   0.01
     5   1    -0.05  -0.11   0.14     0.03  -0.02   0.03     0.01  -0.03   0.05
     6   1    -0.02  -0.01  -0.04     0.01  -0.04   0.07     0.01   0.01   0.01
     7   6    -0.02  -0.02  -0.01    -0.01  -0.01  -0.01     0.00   0.00   0.00
     8   1    -0.05   0.00   0.00    -0.04   0.01   0.01    -0.02   0.01   0.00
     9   1    -0.02  -0.06  -0.02    -0.02  -0.05  -0.01    -0.01  -0.01   0.00
    10   1    -0.03  -0.03  -0.01    -0.02  -0.03  -0.01    -0.01  -0.01   0.00
    11   7     0.02   0.00  -0.01     0.03   0.01  -0.01     0.01   0.01  -0.01
    12   8     0.04  -0.05   0.00     0.02   0.02   0.01     0.01   0.01   0.00
    13   8     0.01   0.02  -0.03     0.04   0.00   0.00     0.02  -0.02  -0.01
    14   6     0.01   0.05  -0.01    -0.02   0.03  -0.06    -0.07   0.05   0.13
    15   1     0.07   0.17  -0.25    -0.02   0.05  -0.12    -0.25  -0.03   0.30
    16   6     0.01   0.12  -0.08    -0.01  -0.04   0.04     0.02  -0.03  -0.21
    17   1     0.02   0.20  -0.25    -0.02  -0.06   0.06    -0.05   0.04  -0.56
    18   6    -0.05  -0.13   0.23    -0.03   0.03  -0.08     0.00   0.18   0.06
    19   1    -0.10  -0.26   0.41    -0.03   0.01  -0.06    -0.07   0.24  -0.03
    20   6     0.02   0.05  -0.08    -0.06  -0.01   0.02     0.09  -0.06  -0.04
    21   1     0.22   0.16  -0.13    -0.12  -0.04   0.04    -0.03  -0.20  -0.17
    22   1     0.13   0.14  -0.16    -0.12  -0.04   0.05     0.33  -0.11   0.00
    23   1    -0.25   0.05  -0.29     0.03   0.00   0.09     0.09  -0.15  -0.09
    24   6     0.00   0.08   0.01     0.01  -0.06   0.07     0.03  -0.11  -0.01
    25   1     0.03   0.05   0.06     0.00  -0.08   0.08     0.00  -0.22   0.04
    26   6     0.02   0.05  -0.02    -0.02   0.18  -0.11    -0.03   0.02  -0.02
    27   1     0.01   0.08   0.00     0.08   0.58   0.08     0.01   0.11   0.02
    28   1     0.05   0.05  -0.07    -0.18   0.27  -0.50    -0.12   0.04  -0.08
    29   6    -0.01  -0.03  -0.01     0.01  -0.04  -0.03    -0.02   0.01   0.01
    30   6    -0.07  -0.03   0.04    -0.08  -0.04   0.05    -0.01   0.01   0.01
    31   1    -0.09  -0.04   0.06    -0.14  -0.07   0.09    -0.01   0.00   0.01
    32   1    -0.08   0.02   0.08    -0.08   0.04   0.12    -0.01   0.01   0.01
    33   1    -0.09  -0.08   0.04    -0.12  -0.10   0.04    -0.01   0.01   0.02
    34   8     0.00  -0.04  -0.01     0.03  -0.05   0.01    -0.03   0.02   0.00
    35   8     0.02   0.01  -0.01     0.04   0.03  -0.04    -0.03  -0.03   0.03
                     22                     23                     24
                      A                      A                      A
 Frequencies --    361.1856               395.1733               407.5375
 Red. masses --      9.4642                 2.7971                 3.8044
 Frc consts  --      0.7274                 0.2574                 0.3723
 IR Inten    --     56.0337                20.5182                45.8583
  Atom  AN      X      Y      Z        X      Y      Z        X      Y      Z
     1   6    -0.01   0.11   0.03     0.01  -0.01   0.10     0.01  -0.05   0.15
     2   6    -0.01   0.14   0.00    -0.02  -0.05   0.12    -0.04  -0.14   0.22
     3   6    -0.06   0.06   0.10     0.02   0.07  -0.12     0.01   0.08  -0.14
     4   6    -0.08   0.05   0.08     0.03   0.06  -0.07     0.06   0.06  -0.09
     5   1    -0.04   0.17  -0.02    -0.09  -0.09   0.17    -0.11  -0.19   0.29
     6   1    -0.02   0.11   0.13    -0.02   0.07  -0.17    -0.04   0.05  -0.19
     7   6    -0.12   0.22   0.10    -0.02   0.03   0.01    -0.01  -0.01   0.00
     8   1    -0.15   0.24   0.09    -0.04   0.04   0.01    -0.03   0.01   0.00
     9   1    -0.13   0.18   0.11    -0.02   0.00  -0.01    -0.01  -0.04  -0.02
    10   1    -0.11   0.22   0.10    -0.04   0.04   0.01    -0.02   0.00   0.00
    11   7    -0.08   0.21   0.08     0.01   0.03   0.03     0.03   0.00   0.01
    12   8     0.32  -0.35  -0.14     0.03  -0.01   0.05     0.02   0.01   0.07
    13   8    -0.02  -0.36  -0.17     0.03  -0.04  -0.07     0.04  -0.02  -0.08
    14   6     0.02  -0.05   0.03    -0.02   0.09  -0.10     0.02  -0.10   0.07
    15   1     0.03  -0.11   0.16    -0.08   0.22  -0.34     0.10  -0.25   0.36
    16   6     0.00   0.03   0.00    -0.01  -0.11   0.11     0.00   0.11  -0.08
    17   1     0.02   0.07  -0.03    -0.04  -0.29   0.47     0.02   0.19  -0.20
    18   6     0.02  -0.01  -0.06     0.00   0.08   0.08    -0.01  -0.06  -0.18
    19   1     0.06   0.06  -0.15    -0.05  -0.07   0.26     0.02   0.02  -0.26
    20   6     0.00   0.02   0.01     0.06  -0.05   0.01    -0.12   0.04  -0.01
    21   1     0.00   0.05   0.07     0.00  -0.13  -0.08    -0.10   0.10   0.10
    22   1    -0.07   0.04  -0.01     0.20  -0.08   0.04    -0.33   0.04  -0.01
    23   1     0.04   0.01   0.04     0.06  -0.08  -0.02    -0.02   0.10   0.10
    24   6    -0.03   0.03   0.02    -0.01  -0.03  -0.13     0.03   0.07  -0.01
    25   1    -0.01  -0.01   0.07    -0.08   0.09  -0.29     0.03   0.12  -0.06
    26   6    -0.01   0.01  -0.02    -0.06  -0.03  -0.04     0.03   0.01   0.02
    27   1    -0.02   0.03   0.00    -0.10  -0.04  -0.03     0.00  -0.09  -0.02
    28   1     0.01   0.01  -0.05    -0.06  -0.03  -0.01     0.09  -0.02   0.11
    29   6    -0.01  -0.01   0.00    -0.02   0.01   0.02     0.00   0.00  -0.01
    30   6    -0.02   0.00  -0.01     0.02   0.01  -0.01    -0.02   0.00   0.02
    31   1    -0.01   0.01  -0.01     0.03   0.01  -0.02    -0.04  -0.02   0.03
    32   1    -0.03  -0.01  -0.02     0.03  -0.02  -0.03    -0.03   0.04   0.05
    33   1    -0.02  -0.01  -0.01     0.03   0.05  -0.01    -0.04  -0.03   0.03
    34   8     0.01  -0.03   0.01    -0.01   0.00   0.00    -0.01   0.03  -0.01
    35   8     0.02   0.04  -0.01    -0.02   0.00   0.02    -0.01  -0.03   0.00
                     25                     26                     27
                      A                      A                      A
 Frequencies --    435.7327               516.2681               538.4310
 Red. masses --      3.8103                 4.7445                 3.1514
 Frc consts  --      0.4262                 0.7451                 0.5383
 IR Inten    --      3.7421                10.8468                 6.7897
  Atom  AN      X      Y      Z        X      Y      Z        X      Y      Z
     1   6     0.00  -0.01   0.02     0.00  -0.01  -0.02     0.01   0.00   0.00
     2   6     0.00  -0.03   0.03     0.03   0.01  -0.02     0.00  -0.01   0.00
     3   6    -0.01   0.01  -0.01     0.04  -0.01   0.01     0.00   0.00  -0.01
     4   6     0.02   0.01  -0.01    -0.05  -0.02   0.01     0.00   0.00  -0.02
     5   1    -0.01  -0.04   0.03     0.05   0.01  -0.02    -0.01  -0.01   0.01
     6   1    -0.01  -0.03   0.01     0.03   0.12  -0.08     0.01  -0.02   0.02
     7   6     0.01  -0.02  -0.01    -0.01   0.03   0.01     0.00   0.01   0.00
     8   1     0.01  -0.02  -0.01     0.01   0.01   0.01    -0.01   0.01   0.00
     9   1     0.01  -0.02  -0.01    -0.01   0.06   0.03     0.00   0.00   0.00
    10   1     0.01  -0.02  -0.01     0.01   0.02   0.01    -0.01   0.01   0.00
    11   7     0.01  -0.02   0.00    -0.04   0.02  -0.01     0.00   0.01   0.01
    12   8     0.00   0.02   0.02    -0.02  -0.04  -0.03    -0.01   0.00   0.00
    13   8     0.01   0.00  -0.01     0.00   0.03   0.02     0.01   0.00   0.00
    14   6     0.01  -0.02   0.01     0.05   0.08   0.05    -0.01  -0.02  -0.01
    15   1     0.02  -0.04   0.05     0.07   0.06   0.07    -0.02  -0.02  -0.02
    16   6    -0.03   0.06  -0.02     0.13  -0.05  -0.01    -0.03   0.01   0.00
    17   1     0.02   0.17  -0.13     0.03  -0.22   0.10    -0.01   0.04  -0.02
    18   6     0.04   0.02  -0.01    -0.08  -0.06  -0.02     0.02   0.01   0.00
    19   1     0.05   0.03  -0.03    -0.15  -0.04  -0.03     0.03   0.01   0.01
    20   6     0.04   0.00   0.01    -0.13   0.00  -0.02     0.03   0.00   0.00
    21   1     0.02  -0.01   0.00    -0.06   0.07   0.03     0.01  -0.02  -0.01
    22   1     0.05  -0.01   0.02    -0.21   0.04  -0.05     0.05  -0.01   0.01
    23   1     0.06   0.00   0.02    -0.16   0.03  -0.02     0.03  -0.01   0.00
    24   6    -0.10   0.03   0.07     0.25  -0.02  -0.13    -0.05   0.01   0.02
    25   1    -0.08   0.02   0.08     0.24  -0.02  -0.12    -0.04   0.01   0.02
    26   6    -0.07  -0.03  -0.03     0.19   0.04  -0.04    -0.04   0.00   0.01
    27   1    -0.10   0.09   0.05     0.22   0.26   0.07    -0.03  -0.02  -0.01
    28   1     0.02  -0.01  -0.20     0.16   0.08  -0.24    -0.04   0.00   0.01
    29   6    -0.11  -0.07   0.11    -0.05   0.01   0.19     0.30  -0.10   0.23
    30   6     0.12  -0.02  -0.13     0.01   0.08   0.01    -0.01  -0.01   0.00
    31   1     0.26   0.09  -0.24     0.06   0.30  -0.06    -0.14   0.63  -0.03
    32   1     0.22  -0.39  -0.35     0.01  -0.15  -0.17    -0.26  -0.05  -0.20
    33   1     0.28   0.27  -0.22     0.04   0.17  -0.11    -0.27  -0.37  -0.25
    34   8    -0.06  -0.22   0.01    -0.10  -0.12  -0.09    -0.04   0.04  -0.05
    35   8     0.06   0.24   0.02    -0.16   0.00   0.13    -0.07   0.02  -0.12
                     28                     29                     30
                      A                      A                      A
 Frequencies --    545.3382               554.7768               561.4196
 Red. masses --      8.6305                 5.6399                 4.8765
 Frc consts  --      1.5122                 1.0227                 0.9056
 IR Inten    --      5.9606               119.4732                47.2552
  Atom  AN      X      Y      Z        X      Y      Z        X      Y      Z
     1   6    -0.25   0.02  -0.02     0.10   0.07   0.03     0.06   0.24   0.06
[...]
 ,-0.00001847,0.00000537,0.00000093,-0.00000713,-0.00001243,-0.00000795
 ,-0.00000946,-0.00000473,0.00001363,0.00012487,0.00011554,-0.00003799,
 0.00000261,0.00001269,0.00007112,-0.00069584,-0.00017182,0.00014264,0.
 00007117,-0.00004129,0.00016178,-0.00092194,-0.00051715,0.00047736,-0.
 00074642,-0.01203092,-0.01082239,-0.08286451,-0.01115484,-0.08274093,0
 .09685645,-0.00010753,0.00001699,-0.00001858,0.00009096,-0.00001323,0.
 00003222,-0.00004362,0.00003366,-0.00006285,-0.00018747,0.00002358,-0.
 00004059,-0.00000045,-0.00000849,-0.00001568,-0.00001265,-0.00001470,-
 0.00002405,0.00000692,0.00000153,0.00000120,-0.00000111,0.00000388,-0.
 00000279,-0.00000307,0.00000020,-0.00000218,-0.00000221,-0.00000161,0.
 00000189,0.00009644,0.00000274,0.00002130,0.00010559,-0.00003908,0.000
 04376,0.00006271,-0.00000441,0.00001080,0.00005041,0.00002557,-0.00000
 091,0.00000297,-0.00001158,-0.00000396,-0.00000370,-0.00004965,0.00001
 108,0.00001136,-0.00001789,-0.00000536,-0.00004214,-0.00000406,0.00000
 697,-0.00000232,0.00000498,0.00000494,0.00003065,0.00001154,0.00000085
 ,-0.00000623,0.00000206,-0.00000008,-0.00000199,-0.00000463,-0.0000033
 5,-0.00000356,-0.00000196,0.00000463,0.00010455,0.00003090,-0.00000479
 ,0.00000813,0.00001412,0.00002699,-0.00064222,-0.00003120,0.00011228,0
 .00005485,-0.00005769,0.00007940,-0.00039389,-0.00003492,0.00012911,-0
 .01773737,-0.01498377,-0.02855255,-0.01019851,-0.03101425,-0.01402456,
 0.01716186,0.04347910,-0.00020598,-0.00000858,-0.00004988,0.00014080,-
 0.00002062,0.00005286,-0.00003750,0.00004017,-0.00008105,-0.00048723,-
 0.00009322,-0.00012373,-0.00000095,-0.00001461,-0.00002877,-0.00007870
 ,-0.00001850,-0.00004555,0.00002209,0.00000544,0.00000189,0.00000078,0
 .00000847,-0.00000328,-0.00000753,-0.00000133,-0.00000300,-0.00000381,
 -0.00000370,0.00000565,0.00025143,0.00002395,0.00005431,0.00054270,0.0
 0004516,0.00003761,0.00012607,-0.00000443,0.00002287,0.00009269,0.0000
 2921,-0.00000392,0.00000252,-0.00001933,-0.00000588,-0.00005376,-0.000
 07585,0.00001100,0.00000264,-0.00002953,-0.00000738,-0.00006991,0.0000
 0003,0.00001016,-0.00000262,0.00000848,0.00000935,0.00004917,0.0000197
 3,-0.00000026,-0.00001086,0.00000293,0.00000026,-0.00000319,-0.0000074
 8,-0.00000533,-0.00000532,-0.00000276,0.00000807,0.00013444,-0.0000078
 0,-0.00008451,0.00001565,0.00001245,0.00003705,-0.00041640,0.00039401,
 0.00052151,0.00004941,-0.00005248,-0.00000011,0.00011334,0.00006167,0.
 00012844,-0.00997336,-0.02131117,-0.01276981,-0.08308159,-0.01534400,-
 0.15581954,0.10375228,0.02577087,0.18876392,-0.00016137,0.00001271,-0.
 00003844,0.00011689,-0.00003026,0.00004313,-0.00003177,0.00003276,-0.0
 0006029,-0.00047422,-0.00004732,-0.00012419,-0.00000029,-0.00000996,-0
 .00002438,-0.00009708,-0.00002224,-0.00004840,0.00001732,0.00000161,0.
 00000174,0.00000478,0.00000950,-0.00000426,-0.00000440,-0.00000142,-0.
 00000504,-0.00000044,-0.00000299,0.00000515,0.00020525,0.00000107,0.00
 004430,0.00055050,-0.00002360,0.00002906,0.00010034,-0.00000897,0.0000
 1786,0.00006256,0.00002327,-0.00000376,0.00000068,-0.00001393,-0.00000
 370,-0.00003500,-0.00004893,0.00001204,0.00000415,-0.00001926,-0.00000
 256,-0.00004998,-0.00000034,0.00000674,-0.00000150,0.00000549,0.000007
 75,0.00003681,0.00001364,-0.00000161,-0.00000844,0.00000207,-0.0000002
 4,-0.00000315,-0.00000527,-0.00000379,-0.00000384,-0.00000222,0.000005
 84,0.00010636,0.00000583,-0.00005258,0.00000879,0.00000642,0.00003122,
 -0.00026192,-0.00011620,0.00019386,0.00005544,-0.00002387,0.00003433,0
 .00001136,0.00006244,0.00003921,-0.00000836,-0.01436645,0.00170054,-0.
 07143766,-0.04404209,0.06229723,0.00617292,0.00267266,-0.00578638,0.08
 014749,-0.00016511,-0.00005671,-0.00005712,0.00006864,0.00000164,0.000
 02621,0.00002652,0.00000470,-0.00001397,-0.00053553,-0.00007702,-0.000
 12470,-0.00000060,-0.00000859,-0.00001710,-0.00007884,-0.00002728,-0.0
 0003213,0.00001565,0.00000303,0.00000071,-0.00000043,0.00000636,0.,-0.
 00000540,-0.00000192,-0.00000451,-0.00000011,-0.00000143,0.00000789,0.
 00026445,0.00002818,0.00005517,0.00048859,0.00002023,0.00005114,0.0001
 0422,0.00000173,0.00001689,0.00007910,0.00002197,-0.00000283,0.0000009
 8,-0.00001429,-0.00000239,-0.00004707,-0.00007399,-0.00000479,0.000020
 43,-0.00001632,0.00000152,-0.00006428,0.00000068,0.00000798,-0.0000010
 6,0.00000752,0.00000974,0.00004245,0.00001602,-0.00000389,-0.00000919,
 0.00000256,0.00000093,-0.00000331,-0.00000617,-0.00000359,-0.00000471,
 -0.00000221,0.00000703,0.00005319,0.00009896,-0.00005997,0.00000369,0.
 00000212,0.00003872,0.00015150,-0.00001222,-0.00030240,0.00006385,-0.0
 0003354,0.00003445,-0.00003695,-0.00009447,0.00007936,-0.01639248,-0.0
 3687154,0.01593527,-0.04175943,-0.07852592,0.06421208,0.00021622,0.002
 52329,0.00506804,0.05837858,0.10761294,0.00020521,0.00001954,0.0000439
 0,-0.00011564,0.00002236,-0.00003420,0.00001291,-0.00003321,0.00005025
 ,0.00054980,0.00010098,0.00013499,0.00000299,0.00001359,0.00002431,0.0
 0005776,0.00001451,0.00003262,-0.00001728,-0.00000287,-0.00000173,-0.0
 0000245,-0.00000732,0.00000048,0.00000623,0.00000208,0.00000618,-0.000
 00116,0.00000079,-0.00000867,-0.00026609,-0.00001573,-0.00005488,-0.00
 061187,-0.00004585,-0.00002859,-0.00012715,0.00000472,-0.00001741,-0.0
 0011589,-0.00002475,0.00000674,-0.00000188,0.00002071,0.00000463,0.000
 06232,0.00008990,0.00000069,-0.00000113,0.00003264,0.00000373,0.000083
 44,-0.00001039,-0.00001059,0.00000199,-0.00000881,-0.00001237,-0.00005
 569,-0.00001947,0.00000306,0.00001147,-0.00000332,-0.00000076,0.000004
 42,0.00000803,0.00000514,0.00000646,0.00000306,-0.00000838,-0.00013407
 ,-0.00003420,0.00009218,-0.00001248,-0.00001395,-0.00004233,0.00056981
 ,-0.00034388,-0.00045507,-0.00007466,0.00004073,-0.00005482,0.00007754
 ,0.00004782,-0.00015890,0.00097907,0.00747976,0.00650532,0.06321851,0.
 06963824,-0.12589086,0.00371711,0.00882371,-0.02256051,-0.07616047,-0.
 08273402,0.14614542,-0.00142836,-0.00121828,-0.00091379,-0.00002923,0.
 00017728,0.00027805,0.00039112,-0.00013005,0.00038264,-0.00782005,-0.0
 0310673,-0.00263352,0.00000223,-0.00004208,-0.00011234,-0.00013910,-0.
 00021751,-0.00032514,0.00025146,0.00003415,0.00003685,0.00001834,0.000
 09161,-0.00001554,-0.00006009,-0.00002650,-0.00005100,-0.00001326,-0.0
 0001179,0.00007622,0.00325655,0.00063792,0.00091442,0.00432075,0.00319
 223,0.00176515,0.00097420,0.00010400,0.00021835,0.00052270,0.00006422,
 -0.00001158,-0.00000733,-0.00007791,-0.00000796,-0.00039286,-0.0004601
 4,-0.00018073,0.00008293,-0.00004882,0.00002387,-0.00036765,0.00010228
 ,0.00000812,-0.00000756,0.00001413,0.00006461,0.00021909,0.00009492,-0
 .00002048,-0.00005397,0.00000705,0.00000228,-0.00001850,-0.00003153,-0
 .00002098,-0.00002445,-0.00001129,0.00003436,-0.00014663,0.00085260,-0
 .00023022,-0.00004340,-0.00013581,0.00017682,0.00055334,-0.00179455,-0
 .00061045,-0.00003773,0.00015252,0.00013931,0.00098619,0.00118427,-0.0
 0062729,0.00393342,0.01711997,0.00444871,-0.16291669,0.06913927,0.0251
 7163,-0.01795343,0.00618790,-0.00635136,-0.01524357,0.00119858,0.00974
 950,0.19375294,-0.00015248,0.00043517,0.00018352,0.00044692,-0.0001518
 8,0.00002007,-0.00027690,0.00008468,-0.00026996,0.00016958,0.00114680,
 0.00054668,-0.00000490,-0.00002811,-0.00004707,-0.00040568,-0.00017720
 ,-0.00017326,-0.00001337,-0.00000149,-0.00001596,-0.00000472,-0.000005
 67,0.00000040,0.00000037,0.00000140,0.00000055,0.00000301,-0.00000532,
 -0.00000090,-0.00036320,-0.00026340,-0.00023033,-0.00105610,-0.0013807
 0,-0.00024421,0.00005130,-0.00006341,-0.00001525,0.00012815,0.00007188
 ,-0.00001550,0.00000549,-0.00003255,-0.00000896,-0.00000659,-0.0000826
 4,0.00007640,0.00001619,-0.00004717,-0.00000583,-0.00011395,-0.0000198
 5,0.00002254,-0.00000320,0.00002228,0.00001559,0.00009022,0.00002950,-
 0.00000392,-0.00001791,0.00000724,0.00000174,-0.00000704,-0.00001309,-
 0.00000770,-0.00001032,-0.00000488,0.00001420,0.00022189,-0.00006912,0
 .00000646,0.00001175,0.00003817,0.00006863,-0.00149616,-0.00192591,0.0
 0105900,0.00012023,-0.00005469,0.00022558,-0.00043030,0.00051632,0.000
 47168,0.02536986,-0.03212948,-0.01018061,0.06839555,-0.06722107,-0.012
 12507,0.00424319,0.00295979,0.00191857,-0.00441678,0.00536367,0.000930
 93,-0.08822282,0.09242649,0.00030276,0.00027361,0.00019718,0.00000984,
 -0.00006866,-0.00004994,-0.00010607,-0.00000140,-0.00007187,0.00124962
 ,0.00062567,0.00058951,0.00000300,0.00000827,0.00001503,-0.00021320,-0
 .00007593,-0.00006694,-0.00003460,-0.00001660,0.00000887,-0.00000236,-
 0.00001596,-0.00000463,0.00001165,0.00000416,0.00001106,-0.00000572,0.
 00000155,-0.00001861,-0.00071666,-0.00017459,-0.00016708,-0.00074753,-
 0.00059645,-0.00075682,-0.00020743,-0.00002278,-0.00004218,-0.00013967
 ,-0.00002319,0.00000107,-0.00000068,0.00002126,0.00000258,0.00006739,0
 .00011433,0.00003250,-0.00002779,0.00002148,-0.00000675,0.00011118,-0.
 00000738,-0.00001301,0.00000181,-0.00000970,-0.00001693,-0.00006974,-0
 .00002487,0.00000695,0.00001452,-0.00000369,-0.00000153,0.00000601,0.0
 0000971,0.00000570,0.00000821,0.00000342,-0.00001044,0.00006309,-0.000
 25658,0.00001826,0.00001861,0.00002279,-0.00005397,0.00032123,0.001999
 97,0.00030423,-0.00002726,-0.00006324,-0.00014476,-0.00018518,-0.00108
 236,0.00052626,0.00495092,-0.01229704,0.00124118,0.02421228,-0.0109605
 3,-0.03309882,-0.01606154,0.00515932,0.00125458,0.01688206,-0.00264306
 ,-0.00374095,-0.03041536,0.01956872,0.03520720,0.00362643,-0.00287522,
 -0.00079156,-0.00469832,0.00128025,-0.00074462,0.00181140,-0.00098565,
 0.00360140,0.00113415,-0.00278757,-0.00055609,0.00011789,0.00036640,0.
 00063053,0.00143277,-0.00028537,0.00032805,-0.00008441,-0.00004580,0.0
 0002056,-0.00005662,-0.00007309,0.00004397,0.00007984,0.00000652,0.000
 06222,-0.00001627,0.00005065,-0.00010424,-0.00068771,0.00104730,0.0004
 3486,0.00017830,0.00169386,0.00024486,-0.00205437,0.00051065,-0.000126
 85,-0.00216420,-0.00029567,-0.00024987,-0.00002762,0.00049946,0.000137
 82,0.00050851,0.00037025,-0.00026206,-0.00011208,0.00008334,0.00029963
 ,0.00183396,0.00019212,-0.00038352,0.00008115,-0.00025720,-0.00023353,
 -0.00139426,-0.00047954,0.00008568,0.00028315,-0.00009904,-0.00001296,
 0.00011232,0.00019701,0.00012353,0.00015070,0.00007662,-0.00021571,-0.
 04749241,0.00815396,0.02390200,-0.00304734,-0.00178134,-0.00189272,-0.
 06661312,0.03743550,0.06322030,-0.00196684,0.00230762,0.01072070,-0.00
 438588,0.00585756,0.00965275,-0.09326475,-0.09566529,0.03193798,-0.002
 94461,-0.02446921,0.00921924,0.00056078,0.00105321,0.00181713,0.000913
 05,-0.00122594,-0.00190594,-0.00268136,-0.00016794,0.00110676,0.289270
 91,0.00081301,-0.00094116,-0.00034721,-0.00143844,0.00023042,-0.000325
 86,0.00211128,-0.00065494,0.00166462,-0.00106378,-0.00108113,-0.000658
 85,0.00003440,0.00009365,0.00014148,-0.00022751,0.00002241,0.00010883,
 0.00003161,-0.00000528,0.00000583,-0.00001057,-0.00000385,0.00001295,0
 .00001480,-0.00000818,0.00000590,-0.00000077,0.00000978,-0.00001204,0.
 00035021,0.00029672,0.00022024,0.00127905,0.00011475,0.00035101,-0.000
 45982,0.00014890,0.00000194,-0.00064213,0.00000493,-0.00012726,-0.0000
 1425,0.00017591,0.00005284,-0.00066511,0.00001738,-0.00002653,0.000509
 03,-0.00001778,0.00003527,0.00060876,0.00021255,-0.00018117,0.00001379
 ,-0.00012334,-0.00007170,-0.00051739,-0.00016576,0.00002385,0.00009466
 ,-0.00004316,-0.00000447,0.00003989,0.00007367,0.00004508,0.00005563,0
 .00003058,-0.00008102,-0.00160524,0.00806983,0.00738597,-0.00137637,-0
 .00045428,-0.00070647,0.03156867,-0.08972766,-0.05464735,-0.00718375,0
 .00778274,0.00738866,0.01759832,-0.01602551,-0.02540248,-0.07020219,-0
 .15655984,0.03319784,-0.02690932,-0.03635682,0.00960123,0.00076942,-0.
 00105285,0.00186726,0.00058839,-0.00238075,-0.00278048,-0.00183536,0.0
 0146680,0.00068569,0.06211179,0.26116594,-0.00160891,0.00105136,0.0001
 9394,0.00223775,-0.00012418,0.00063990,-0.00300647,0.00134846,-0.00244
 455,-0.00086418,0.00148495,0.00033637,-0.00004355,-0.00014732,-0.00022
 351,0.00102922,-0.00055632,-0.00016409,0.00001711,0.00002799,-0.000038
 64,0.00002538,0.00003409,-0.00001639,-0.00003594,0.00000083,-0.0000304
 2,0.00001504,-0.00002340,0.00005368,0.00046457,-0.00032682,-0.00013632
 ,-0.00002183,-0.00077100,0.00006127,0.00097062,-0.00022150,0.00005816,
 0.00132888,0.00046192,-0.00017066,0.00004238,-0.00029633,-0.00008828,-
 0.00059399,-0.00150459,0.00068046,0.00030062,-0.00034248,-0.00030500,-
 0.00126157,-0.00038054,0.00030352,-0.00003370,0.00022755,0.00013536,0.
 00097982,0.00030135,-0.00001932,-0.00017910,0.00008153,0.00000574,-0.0
 0007966,-0.00013630,-0.00008686,-0.00011161,-0.00005668,0.00014686,0.0
 2266215,-0.00082562,0.00105143,0.00008345,0.00105062,0.00083053,0.0509
 6687,-0.06037396,-0.11478037,0.01890607,-0.00428178,-0.03846109,0.0115
 6504,-0.01080890,-0.01409467,0.04237429,0.05909655,-0.05000907,0.00760
 085,0.00768831,0.00759109,0.00006792,0.00114302,-0.00117340,-0.0001778
 2,-0.00057202,0.00101058,0.00142005,-0.00101728,-0.00111000,-0.2364088
 0,0.01277518,0.29131872,0.00136581,-0.00084972,-0.00016539,-0.00166510
 ,0.00037913,-0.00033324,0.00101190,-0.00053862,0.00124702,0.00123277,-
 0.00093085,-0.00006940,0.00002929,0.00013170,0.00022915,0.00071850,0.0
 0005538,0.00029919,-0.00005380,-0.00001489,0.00000697,-0.00002098,-0.0
 0003592,0.00001571,0.00003279,0.00000489,0.00002697,-0.00000507,0.0000
 1850,-0.00004257,-0.00058390,0.00030656,0.00007332,-0.00058630,0.00061
 918,-0.00003606,-0.00080227,0.00016653,-0.00006575,-0.00086243,-0.0002
 8345,0.00006939,-0.00002247,0.00019346,0.00005087,0.00050867,0.0006905
 4,-0.00028998,-0.00003564,0.00032598,0.00006411,0.00073342,0.00011221,
 -0.00014955,0.00001496,-0.00011978,-0.00009493,-0.00055024,-0.00017890
 ,0.00001870,0.00010901,-0.00004084,-0.00000501,0.00004439,0.00007885,0
 .00004991,0.00006196,0.00003216,-0.00008570,-0.00207862,0.00080992,0.0
 0138701,-0.00024834,-0.00031276,-0.00046054,0.00656659,-0.01162192,-0.
 00183990,-0.00244615,0.00153203,0.00105358,0.00044331,-0.00126427,-0.0
 0117397,-0.19169997,0.17283887,0.20824624,0.01282991,0.01156928,0.0139
 5162,-0.00106903,0.00168838,-0.00053618,-0.00069216,-0.00084589,0.0002
 8699,0.00012083,-0.00210332,-0.00038004,-0.06840639,-0.00445092,0.0813
 7018,0.24600132,-0.00072093,0.00034595,0.00004210,0.00065555,-0.000318
 99,0.00014213,-0.00022441,0.00024480,-0.00029693,-0.00117511,0.0000620
 5,-0.00024810,-0.00001828,-0.00005739,-0.00011830,-0.00043555,-0.00004
 309,-0.00018650,0.00004377,0.00001000,0.00000445,0.00001556,0.00002383
 ,-0.00000863,-0.00001822,-0.00000550,-0.00001669,0.00000273,-0.0000083
 7,0.00002400,0.00050422,-0.00011876,0.00003420,0.00108939,-0.00022515,
 0.00006891,0.00041590,-0.00007528,0.00004299,0.00037851,0.00011042,-0.
 00005744,-0.00000263,-0.00006443,-0.00001098,-0.00010843,-0.00021544,0
 .00008980,-0.00010244,-0.00007796,0.00001659,-0.00023312,0.00008702,0.
 00001060,-0.00001163,0.00001466,0.00004413,0.00016242,0.00005059,-0.00
 001038,-0.00003608,0.00000790,0.00000081,-0.00001637,-0.00002108,-0.00
 001473,-0.00001855,-0.00000861,0.00002322,0.00023909,0.00004829,0.0004
 3507,-0.00004880,0.00002472,0.00008722,-0.00347007,0.00012602,0.000886
 62,0.00013273,0.00003289,0.00031862,-0.00040177,-0.00005952,0.00073321
 ,0.14802846,-0.22128916,-0.21935972,0.01504287,-0.04423924,-0.04121922
 ,0.00168372,-0.00178779,0.00173861,0.00138558,0.00248961,-0.00121576,-
 0.00298459,-0.00089318,-0.00017608,0.00820318,0.02568969,-0.00401028,-
 0.16795923,0.24013249,-0.00181452,0.00104911,0.00018919,0.00205887,-0.
 00054302,0.00038785,-0.00118262,0.00070418,-0.00152503,-0.00187731,0.0
 0097395,-0.00006115,-0.00005467,-0.00016256,-0.00027997,-0.00067036,-0
 .00007290,-0.00031141,0.00007844,0.00002642,-0.00000204,0.00003177,0.0
 0004933,-0.00002152,-0.00004417,-0.00000875,-0.00003970,0.00000839,-0.
 00002251,0.00005915,0.00088609,-0.00039727,-0.00005870,0.00124702,-0.0
 0073462,0.00004011,0.00107311,-0.00021796,0.00008635,0.00109500,0.0003
 4961,-0.00008813,0.00002347,-0.00023844,-0.00005320,-0.00059704,-0.000
 89438,0.00029448,-0.00000373,-0.00037437,-0.00006739,-0.00089976,-0.00
 007176,0.00016369,-0.00002694,0.00013064,0.00012263,0.00067324,0.00021
 681,-0.00002623,-0.00013386,0.00004740,0.00000742,-0.00005664,-0.00009
 477,-0.00005846,-0.00007805,-0.00003900,0.00010192,0.00352310,-0.00136
 814,-0.00264581,0.00048817,0.00047717,0.00062516,-0.00252871,0.0109258
 1,0.00897798,0.00158205,-0.00107937,0.00016845,-0.00056921,0.00125129,
 0.00135832,0.19942021,-0.24681098,-0.36254359,0.01458444,-0.03672356,-
 0.01150830,0.00142266,0.00137748,0.00184630,0.00114558,0.00102542,-0.0
 0098909,-0.00238335,-0.00076931,-0.00004699,0.08630081,0.00980701,-0.0
 8106725,-0.30271952,0.26221067,0.44696451\\0.00000135,0.00000610,-0.00
 000013,0.00000350,0.00000067,-0.00000037,-0.00000047,-0.00000021,-0.00
 000015,0.00000291,0.00000035,0.00000110,-0.00000016,0.00000238,-0.0000
 0096,0.00000038,-0.00000074,0.00000082,0.00000451,0.00000237,0.0000000
 4,0.00000660,0.00000209,0.00000059,0.00000498,0.00000450,-0.00000087,0
 .00000386,0.00000258,-0.00000008,0.00000217,0.00000172,-0.00000119,0.0
 0000290,-0.00000281,0.00000041,0.00000258,0.00000579,-0.00000192,-0.00
 000309,0.00000193,-0.00000170,-0.00000533,0.00000161,-0.00000165,-0.00
 000414,-0.00000063,0.00000013,-0.00000434,-0.00000197,0.00000005,-0.00
 000310,0.00000367,-0.00000186,-0.00000210,0.00000271,-0.00000146,-0.00
 000325,0.00000466,-0.00000250,-0.00000223,0.00000575,-0.00000272,-0.00
 000385,0.00000557,-0.00000265,-0.00000425,0.00000619,-0.00000339,-0.00
 000186,-0.00000076,-0.00000006,-0.00000085,-0.00000081,-0.00000010,-0.
 00000136,-0.00000319,0.00000050,-0.00000298,-0.00000421,0.00000125,0.0
 0000035,-0.00000379,0.00000125,-0.00000153,-0.00000489,0.00000411,0.00
 000198,-0.00000586,0.00000309,0.00000219,-0.00000709,0.00000324,0.0000
 0313,-0.00000660,0.00000331,0.00000217,-0.00000469,0.00000246,-0.00000
 164,-0.00000455,-0.00000019,0.00000099,-0.00000781,0.00000162\\\@


 "THE ACADEMIC HIERARCHY"


 THE PRESIDENT:
   LEAPS TALL BUILDINGS IN A SINGLE BOUND,
     IS MORE POWERFUL THAN A LOCOMOTIVE,
       IS FASTER THAN A SPEEDING BULLET,
         WALKS ON WATER,
           GIVES POLICY TO GOD.

 THE VICE PRESIDENT FOR ACADEMIC AFFAIRS:
   LEAPS SHORT BUILDINGS IN A SINGLE BOUND,
     IS MORE POWERFUL THAN A SWITCH ENGINE,
       IS JUST AS FAST AS A SPEEDING BULLET,
         WALKS ON WATER IF SEA IS CALM,
           TALKS WITH GOD.

 PROFESSOR:
   LEAPS SHORT BUILDINGS WITH A RUNNING START AND FAVORABLE WINDS,
     IS ALMOST AS POWERFUL AS A SWITCH ENGINE,
       CAN FIRE A SPEEDING BULLET,
         WALKS ON WATER IN AN INDOOR SWIMMING POOL,
          TALKS WITH GOD IF SPECIAL REQUEST IS APPROVED.

 ASSOCIATE PROFESSOR:
   BARELY CLEARS A QUONSET HUT,
     LOSES TUG OF WAR WITH LOCOMOTIVE,
       MISFIRES FREQUENTLY,
         SWIMS WELL,
           IS OCCASIONALLY ADDRESSED BY GOD.

 ASSISTANT PROFESSOR:
   MAKES HIGH MARKS ON WALLS WHEN TRYING TO LEAP TALL BUILDINGS,
     IS RUN OVER BY LOCOMOTIVES,
       CAN SOMETIMES HANDLE A GUN WITHOUT INFLICTING SELF INJURY,
         DOG PADDLES,
           TALKS TO ANIMALS.

 GRADUATE STUDENT:
   RUNS INTO BUILDINGS,
     RECOGNIZES LOCOMOTIVES TWO OUT OF THREE TIMES,
       IS NOT ISSUED AMMUNITION,
         CAN STAY AFLOAT WITH A LIFE JACKET,
           TALKS TO WALLS.

 UNDERGRADUATE AND WORK STUDY STUDENT:
   FALLS OVER DOORSTEP WHEN TRYING TO ENTER BUILDINGS,
     SAYS, "LOOK AT THE CHOO-CHOO,"
       WETS HIMSELF WITH A WATER PISTOL,
        PLAYS IN MUD PUDDLES,
          MUMBLES TO HIMSELF.

 DEPARTMENT SECRETARY:
   LIFTS TALL BUILDINGS AND WALKS UNDER THEM,
     KICKS LOCOMOTIVES OFF THE TRACKS,
       CATCHES SPEEDING BULLETS IN HER TEETH AND EATS THEM,
         FREEZES WATER WITH A SINGLE GLANCE,
           IS GOD.
 Job cpu time:       0 days  0 hours  0 minutes 48.3 seconds.
 File lengths (MBytes):  RWF=    173 Int=      0 D2E=      0 Chk=     10 Scr=      1
 Normal termination of Gaussian 09 at Wed Aug 12 16:54:11 2020.
