 Entering Gaussian System, Link 0=g09
 Input=water_diene_pm6_cpcmtoluene.com
 Output=water_diene_pm6_cpcmtoluene.log
 Initial command:
 /apps/applications/gaussian/G09.D01/2/default/g09/l1.exe "/local/697344.1.40core-192G.q/Gau-355191.inp" -scrdir="/local/697344.1.40core-192G.q/"
 Entering Link 1 = /apps/applications/gaussian/G09.D01/2/default/g09/l1.exe PID=    355192.
  
 Copyright (c) 1988,1990,1992,1993,1995,1998,2003,2009,2013,
            Gaussian, Inc.  All Rights Reserved.
  
 This is part of the Gaussian(R) 09 program.  It is based on
 the Gaussian(R) 03 system (copyright 2003, Gaussian, Inc.),
 the Gaussian(R) 98 system (copyright 1998, Gaussian, Inc.),
 the Gaussian(R) 94 system (copyright 1995, Gaussian, Inc.),
 the Gaussian 92(TM) system (copyright 1992, Gaussian, Inc.),
 the Gaussian 90(TM) system (copyright 1990, Gaussian, Inc.),
 the Gaussian 88(TM) system (copyright 1988, Gaussian, Inc.),
 the Gaussian 86(TM) system (copyright 1986, Carnegie Mellon
 University), and the Gaussian 82(TM) system (copyright 1983,
 Carnegie Mellon University). Gaussian is a federally registered
 trademark of Gaussian, Inc.
  
 This software contains proprietary and confidential information,
 including trade secrets, belonging to Gaussian, Inc.
  
 This software is provided under written license and may be
 used, copied, transmitted, or stored only in accord with that
 written license.
  
 The following legend is applicable only to US Government
 contracts under FAR:
  
                    RESTRICTED RIGHTS LEGEND
  
 Use, reproduction and disclosure by the US Government is
 subject to restrictions as set forth in subparagraphs (a)
 and (c) of the Commercial Computer Software - Restricted
 Rights clause in FAR 52.227-19.
  
 Gaussian, Inc.
 340 Quinnipiac St., Bldg. 40, Wallingford CT 06492
  
  
 ---------------------------------------------------------------
 Warning -- This program may not be used in any manner that
 competes with the business of Gaussian, Inc. or will provide
 assistance to any competitor of Gaussian, Inc.  The licensee
 of this program is prohibited from giving any competitor of
 Gaussian, Inc. access to this program.  By using this program,
 the user acknowledges that Gaussian, Inc. is engaged in the
 business of creating and licensing software in the field of
 computational chemistry and represents and warrants to the
 licensee that it is not a competitor of Gaussian, Inc. and that
 it will not use this program in any manner prohibited above.
 ---------------------------------------------------------------
  

 Cite this work as:
 Gaussian 09, Revision D.01,
 M. J. Frisch, G. W. Trucks, H. B. Schlegel, G. E. Scuseria, 
 M. A. Robb, J. R. Cheeseman, G. Scalmani, V. Barone, B. Mennucci, 
 G. A. Petersson, H. Nakatsuji, M. Caricato, X. Li, H. P. Hratchian, 
 A. F. Izmaylov, J. Bloino, G. Zheng, J. L. Sonnenberg, M. Hada, 
 M. Ehara, K. Toyota, R. Fukuda, J. Hasegawa, M. Ishida, T. Nakajima, 
 Y. Honda, O. Kitao, H. Nakai, T. Vreven, J. A. Montgomery, Jr., 
 J. E. Peralta, F. Ogliaro, M. Bearpark, J. J. Heyd, E. Brothers, 
 K. N. Kudin, V. N. Staroverov, T. Keith, R. Kobayashi, J. Normand, 
 K. Raghavachari, A. Rendell, J. C. Burant, S. S. Iyengar, J. Tomasi, 
 M. Cossi, N. Rega, J. M. Millam, M. Klene, J. E. Knox, J. B. Cross, 
 V. Bakken, C. Adamo, J. Jaramillo, R. Gomperts, R. E. Stratmann, 
 O. Yazyev, A. J. Austin, R. Cammi, C. Pomelli, J. W. Ochterski, 
 R. L. Martin, K. Morokuma, V. G. Zakrzewski, G. A. Voth, 
 P. Salvador, J. J. Dannenberg, S. Dapprich, A. D. Daniels, 
 O. Farkas, J. B. Foresman, J. V. Ortiz, J. Cioslowski, 
 and D. J. Fox, Gaussian, Inc., Wallingford CT, 2013.
 
 ******************************************
 Gaussian 09:  ES64L-G09RevD.01 24-Apr-2013
                12-Aug-2020 
 ******************************************
 %nprocshared=4
 Will use up to    4 processors via shared memory.
 %chk=water_diene_pm6_cpcmtoluene.chk
 ----------------------------------------------------------------------
 # opt freq pm6 scrf=(cpcm,solvent=water) geom=connectivity empiricaldi
 spersion=gd3
 ----------------------------------------------------------------------
 1/14=-1,18=20,19=15,26=1,38=1,57=2/1,3;
 2/9=110,12=2,17=6,18=5,40=1/2;
 3/5=2,16=1,25=1,41=3900000,70=2101,71=1,72=1,124=31/1,2,3;
 4/35=1/1;
 5/5=2,35=1,38=5,53=1/2;
 6/7=2,8=2,9=2,10=2,28=1/1;
 7//1,2,3,16;
 1/14=-1,18=20,19=15,26=1/3(2);
 2/9=110/2;
 99//99;
 2/9=110/2;
 3/5=2,16=1,25=1,41=3900000,70=2105,71=1,72=1,124=31,135=20/1,2,3;
 4/5=5,16=3,35=1/1;
 5/5=2,35=1,38=5,53=1/2;
 7//1,2,3,16;
 1/14=-1,18=20,19=15,26=1/3(-5);
 2/9=110/2;
 6/7=2,8=2,9=2,10=2,19=2,28=1/1;
 99/9=1/99;
 -------------------
 Title Card Required
 -------------------
 Symbolic Z-matrix:
 Charge =  0 Multiplicity = 1
 C                     2.55892  -0.59435  -0.3305 
 H                     2.84627  -1.45295  -0.94318 
 C                     1.11455  -0.37387  -0.23877 
 H                     0.50812  -1.28837  -0.21303 
 C                     3.47704   0.15928   0.29073 
 H                     3.19364   1.00753   0.91818 
 C                     4.94268  -0.08744   0.20052 
 H                     5.37097  -0.29748   1.1922 
 H                     5.20223  -0.93583  -0.44703 
 H                     5.46936   0.7933   -0.1962 
 C                     0.53462   0.83221  -0.20262 
 H                     1.11011   1.75967  -0.24124 
 C                    -0.94111   1.05523  -0.1182 
 H                    -1.33409   1.53716  -1.03367 
 H                    -1.21538   1.6421    0.77892 
 C                    -2.92793  -0.40278   0.08946 
 C                    -3.78848   0.80822   0.06925 
 H                    -3.68734   1.38379  -0.86421 
 H                    -4.85551   0.53619   0.1534 
 H                    -3.57541   1.49326   0.90467 
 O                    -1.55755  -0.26628  -0.00029 
 O                    -3.29928  -1.55338   0.17928 
 

 GradGradGradGradGradGradGradGradGradGradGradGradGradGradGradGradGradGrad
 Berny optimization.
 Initialization pass.
                           ----------------------------
                           !    Initial Parameters    !
                           ! (Angstroms and Degrees)  !
 --------------------------                            --------------------------
 ! Name  Definition              Value          Derivative Info.                !
 --------------------------------------------------------------------------------
 ! R1    R(1,2)                  1.0932         estimate D2E/DX2                !
 ! R2    R(1,3)                  1.464          estimate D2E/DX2                !
 ! R3    R(1,5)                  1.3404         estimate D2E/DX2                !
 ! R4    R(3,4)                  1.0976         estimate D2E/DX2                !
 ! R5    R(3,11)                 1.3388         estimate D2E/DX2                !
 ! R6    R(5,6)                  1.0925         estimate D2E/DX2                !
 ! R7    R(5,7)                  1.489          estimate D2E/DX2                !
 ! R8    R(7,8)                  1.1004         estimate D2E/DX2                !
 ! R9    R(7,9)                  1.0984         estimate D2E/DX2                !
 ! R10   R(7,10)                 1.1002         estimate D2E/DX2                !
 ! R11   R(11,12)                1.0922         estimate D2E/DX2                !
 ! R12   R(11,13)                1.4949         estimate D2E/DX2                !
 ! R13   R(13,14)                1.1067         estimate D2E/DX2                !
 ! R14   R(13,15)                1.1066         estimate D2E/DX2                !
 ! R15   R(13,21)                1.463          estimate D2E/DX2                !
 ! R16   R(16,17)                1.4858         estimate D2E/DX2                !
 ! R17   R(16,21)                1.3801         estimate D2E/DX2                !
 ! R18   R(16,22)                1.2124         estimate D2E/DX2                !
 ! R19   R(17,18)                1.1013         estimate D2E/DX2                !
 ! R20   R(17,19)                1.1044         estimate D2E/DX2                !
 ! R21   R(17,20)                1.1012         estimate D2E/DX2                !
 ! A1    A(2,1,3)              114.3759         estimate D2E/DX2                !
 ! A2    A(2,1,5)              121.4166         estimate D2E/DX2                !
 ! A3    A(3,1,5)              124.1974         estimate D2E/DX2                !
 ! A4    A(1,3,4)              114.9044         estimate D2E/DX2                !
 ! A5    A(1,3,11)             124.3854         estimate D2E/DX2                !
 ! A6    A(4,3,11)             120.7057         estimate D2E/DX2                !
 ! A7    A(1,5,6)              121.6698         estimate D2E/DX2                !
 ! A8    A(1,5,7)              123.5697         estimate D2E/DX2                !
 ! A9    A(6,5,7)              114.7579         estimate D2E/DX2                !
 ! A10   A(5,7,8)              111.108          estimate D2E/DX2                !
 ! A11   A(5,7,9)              113.3467         estimate D2E/DX2                !
 ! A12   A(5,7,10)             111.1248         estimate D2E/DX2                !
 ! A13   A(8,7,9)              106.9711         estimate D2E/DX2                !
 ! A14   A(8,7,10)             106.9429         estimate D2E/DX2                !
 ! A15   A(9,7,10)             107.0144         estimate D2E/DX2                !
 ! A16   A(3,11,12)            122.399          estimate D2E/DX2                !
 ! A17   A(3,11,13)            124.3034         estimate D2E/DX2                !
 ! A18   A(12,11,13)           113.2958         estimate D2E/DX2                !
 ! A19   A(11,13,14)           111.6417         estimate D2E/DX2                !
 ! A20   A(11,13,15)           111.6902         estimate D2E/DX2                !
 ! A21   A(11,13,21)           106.6035         estimate D2E/DX2                !
 ! A22   A(14,13,15)           110.5901         estimate D2E/DX2                !
 ! A23   A(14,13,21)           108.0843         estimate D2E/DX2                !
 ! A24   A(15,13,21)           108.0168         estimate D2E/DX2                !
 ! A25   A(17,16,21)           119.5793         estimate D2E/DX2                !
 ! A26   A(17,16,22)           126.6652         estimate D2E/DX2                !
 ! A27   A(21,16,22)           113.7555         estimate D2E/DX2                !
 ! A28   A(16,17,18)           112.6011         estimate D2E/DX2                !
 ! A29   A(16,17,19)           110.9658         estimate D2E/DX2                !
 ! A30   A(16,17,20)           112.6231         estimate D2E/DX2                !
 ! A31   A(18,17,19)           106.3826         estimate D2E/DX2                !
 ! A32   A(18,17,20)           107.4664         estimate D2E/DX2                !
 ! A33   A(19,17,20)           106.4019         estimate D2E/DX2                !
 ! A34   A(13,21,16)           120.8624         estimate D2E/DX2                !
 ! D1    D(2,1,3,4)             35.832          estimate D2E/DX2                !
 ! D2    D(2,1,3,11)          -143.3984         estimate D2E/DX2                !
 ! D3    D(5,1,3,4)           -143.0227         estimate D2E/DX2                !
 ! D4    D(5,1,3,11)            37.7469         estimate D2E/DX2                !
 ! D5    D(2,1,5,6)           -178.9044         estimate D2E/DX2                !
 ! D6    D(2,1,5,7)              0.4741         estimate D2E/DX2                !
 ! D7    D(3,1,5,6)             -0.1268         estimate D2E/DX2                !
 ! D8    D(3,1,5,7)            179.2517         estimate D2E/DX2                !
 ! D9    D(1,3,11,12)            0.0899         estimate D2E/DX2                !
 ! D10   D(1,3,11,13)          179.5687         estimate D2E/DX2                !
 ! D11   D(4,3,11,12)         -179.0982         estimate D2E/DX2                !
 ! D12   D(4,3,11,13)            0.3806         estimate D2E/DX2                !
 ! D13   D(1,5,7,8)           -119.0783         estimate D2E/DX2                !
 ! D14   D(1,5,7,9)              1.413          estimate D2E/DX2                !
 ! D15   D(1,5,7,10)           121.9728         estimate D2E/DX2                !
 ! D16   D(6,5,7,8)             60.3393         estimate D2E/DX2                !
 ! D17   D(6,5,7,9)           -179.1694         estimate D2E/DX2                !
 ! D18   D(6,5,7,10)           -58.6097         estimate D2E/DX2                !
 ! D19   D(3,11,13,14)        -114.2983         estimate D2E/DX2                !
 ! D20   D(3,11,13,15)         121.2998         estimate D2E/DX2                !
 ! D21   D(3,11,13,21)           3.5282         estimate D2E/DX2                !
 ! D22   D(12,11,13,14)         65.2226         estimate D2E/DX2                !
 ! D23   D(12,11,13,15)        -59.1794         estimate D2E/DX2                !
 ! D24   D(12,11,13,21)       -176.9509         estimate D2E/DX2                !
 ! D25   D(11,13,21,16)       -179.58           estimate D2E/DX2                !
 ! D26   D(14,13,21,16)        -59.4333         estimate D2E/DX2                !
 ! D27   D(15,13,21,16)         60.2521         estimate D2E/DX2                !
 ! D28   D(21,16,17,18)         61.1254         estimate D2E/DX2                !
 ! D29   D(21,16,17,19)       -179.7517         estimate D2E/DX2                !
 ! D30   D(21,16,17,20)        -60.5895         estimate D2E/DX2                !
 ! D31   D(22,16,17,18)       -118.8598         estimate D2E/DX2                !
 ! D32   D(22,16,17,19)          0.2631         estimate D2E/DX2                !
 ! D33   D(22,16,17,20)        119.4253         estimate D2E/DX2                !
 ! D34   D(17,16,21,13)         -0.1428         estimate D2E/DX2                !
 ! D35   D(22,16,21,13)        179.8443         estimate D2E/DX2                !
 --------------------------------------------------------------------------------
 Trust Radius=3.00D-01 FncErr=1.00D-07 GrdErr=1.00D-07
 Number of steps in this run=    100 maximum allowed number of steps=    132.
 GradGradGradGradGradGradGradGradGradGradGradGradGradGradGradGradGradGrad

                          Input orientation:                          
 ---------------------------------------------------------------------
 Center     Atomic      Atomic             Coordinates (Angstroms)
 Number     Number       Type             X           Y           Z
 ---------------------------------------------------------------------
      1          6           0        2.558923   -0.594345   -0.330502
      2          1           0        2.846274   -1.452949   -0.943183
      3          6           0        1.114552   -0.373872   -0.238765
      4          1           0        0.508115   -1.288366   -0.213032
      5          6           0        3.477035    0.159280    0.290725
      6          1           0        3.193636    1.007526    0.918175
      7          6           0        4.942676   -0.087443    0.200520
      8          1           0        5.370969   -0.297480    1.192203
      9          1           0        5.202225   -0.935827   -0.447031
     10          1           0        5.469363    0.793301   -0.196199
     11          6           0        0.534615    0.832205   -0.202615
     12          1           0        1.110106    1.759665   -0.241237
     13          6           0       -0.941113    1.055226   -0.118200
     14          1           0       -1.334093    1.537162   -1.033671
     15          1           0       -1.215378    1.642096    0.778922
     16          6           0       -2.927929   -0.402781    0.089459
     17          6           0       -3.788479    0.808220    0.069252
     18          1           0       -3.687338    1.383788   -0.864214
     19          1           0       -4.855514    0.536191    0.153403
     20          1           0       -3.575412    1.493264    0.904674
     21          8           0       -1.557545   -0.266283   -0.000287
     22          8           0       -3.299284   -1.553381    0.179280
 ---------------------------------------------------------------------
                    Distance matrix (angstroms):
                    1          2          3          4          5
     1  C    0.000000
     2  H    1.093229   0.000000
     3  C    1.463978   2.158581   0.000000
     4  H    2.168243   2.455035   1.097601   0.000000
     5  C    1.340449   2.125952   2.479100   3.341248   0.000000
     6  H    2.127920   3.104714   2.751247   3.709821   1.092488
     7  C    2.494236   2.750921   3.863877   4.612870   1.488997
     8  H    3.211598   3.502723   4.491168   5.157896   2.146690
     9  H    2.667815   2.462537   4.131372   4.713142   2.172516
    10  H    3.227113   3.533302   4.508712   5.380298   2.146730
    11  C    2.479763   3.333787   1.338751   2.120762   3.058439
    12  H    2.765574   3.718588   2.133543   3.107037   2.906298
    13  C    3.875101   4.616908   2.506515   2.757114   4.526585
    14  H    4.493700   5.140469   3.206211   3.471424   5.176827
    15  H    4.525245   5.389060   3.244748   3.541470   4.945283
    16  C    5.506234   5.959079   4.055887   3.561202   6.432728
    17  C    6.512795   7.082221   5.052913   4.789162   7.297799
    18  H    6.573708   7.123300   5.151573   5.016600   7.359453
    19  H    7.515727   8.029740   6.051752   5.677306   8.342199
    20  H    6.596502   7.302931   5.175849   5.065760   7.203711
    21  O    4.142701   4.657344   2.684874   2.314490   5.060908
    22  O    5.958038   6.248031   4.587805   3.836721   6.990288
                    6          7          8          9         10
     6  H    0.000000
     7  C    2.184749   0.000000
     8  H    2.553216   1.100448   0.000000
     9  H    3.110440   1.098382   1.767215   0.000000
    10  H    2.542962   1.100225   1.768373   1.767530   0.000000
    11  C    2.890900   4.520981   5.158684   4.997225   4.934906
    12  H    2.500209   4.277330   4.943840   4.904433   4.465312
    13  C    4.262921   6.002187   6.587059   6.466299   6.416299
    14  H    4.958886   6.600030   7.299197   7.013079   6.895049
    15  H    4.456621   6.422420   6.878424   7.023836   6.808603
    16  C    6.336347   7.877702   8.372505   8.165253   8.486856
    17  C    7.036357   8.777956   9.294035   9.172841   9.261659
    18  H    7.118025   8.819032   9.439727   9.196683   9.200005
    19  H    8.099126   9.818129  10.312859  10.182606  10.333993
    20  H    6.786467   8.692082   9.128372   9.207307   9.138371
    21  O    5.003987   6.505781   7.030456   6.807522   7.109046
    22  O    7.018705   8.371340   8.819104   8.546888   9.084992
                   11         12         13         14         15
    11  C    0.000000
    12  H    1.092183   0.000000
    13  C    1.494870   2.172296   0.000000
    14  H    2.163259   2.579063   1.106699   0.000000
    15  H    2.163750   2.542130   1.106556   1.819505   0.000000
    16  C    3.687778   4.592522   2.473124   2.750475   2.754943
    17  C    4.331700   4.999779   2.864200   2.787796   2.796396
    18  H    4.308926   4.852304   2.864654   2.364318   2.979464
    19  H    5.409978   6.102561   3.957992   3.848570   3.855501
    20  H    4.307599   4.830959   2.859664   2.963548   2.368064
    21  O    2.371655   3.358405   1.462969   2.090509   2.089535
    22  O    4.531627   5.531350   3.529064   3.858067   3.861775
                   16         17         18         19         20
    16  C    0.000000
    17  C    1.485758   0.000000
    18  H    2.162874   1.101302   0.000000
    19  H    2.145074   1.104375   1.765956   0.000000
    20  H    2.163053   1.101187   1.775803   1.766085   0.000000
    21  O    1.380086   2.477188   2.829332   3.397673   2.826083
    22  O    1.212375   2.414245   3.141087   2.605539   3.143961
                   21         22
    21  O    0.000000
    22  O    2.173136   0.000000
 Stoichiometry    C8H12O2
 Framework group  C1[X(C8H12O2)]
 Deg. of freedom    60
 Full point group                 C1      NOp   1
 Largest Abelian subgroup         C1      NOp   1
 Largest concise Abelian subgroup C1      NOp   1
                         Standard orientation:                         
 ---------------------------------------------------------------------
 Center     Atomic      Atomic             Coordinates (Angstroms)
 Number     Number       Type             X           Y           Z
 ---------------------------------------------------------------------
      1          6           0       -2.558923    0.594345   -0.330502
      2          1           0       -2.846274    1.452949   -0.943183
      3          6           0       -1.114552    0.373872   -0.238765
      4          1           0       -0.508115    1.288366   -0.213032
      5          6           0       -3.477035   -0.159280    0.290725
      6          1           0       -3.193636   -1.007526    0.918175
      7          6           0       -4.942676    0.087443    0.200520
      8          1           0       -5.370969    0.297480    1.192203
      9          1           0       -5.202225    0.935827   -0.447031
     10          1           0       -5.469363   -0.793301   -0.196199
     11          6           0       -0.534615   -0.832205   -0.202615
     12          1           0       -1.110106   -1.759665   -0.241237
     13          6           0        0.941113   -1.055226   -0.118200
     14          1           0        1.334093   -1.537162   -1.033671
     15          1           0        1.215378   -1.642096    0.778922
     16          6           0        2.927929    0.402781    0.089459
     17          6           0        3.788479   -0.808220    0.069252
     18          1           0        3.687338   -1.383788   -0.864214
     19          1           0        4.855514   -0.536191    0.153403
     20          1           0        3.575412   -1.493264    0.904674
     21          8           0        1.557545    0.266283   -0.000287
     22          8           0        3.299284    1.553381    0.179280
 ---------------------------------------------------------------------
 Rotational constants (GHZ):      4.6936959      0.4193357      0.3918593
 Standard basis: VSTO-6G (5D, 7F)
 There are    52 symmetry adapted cartesian basis functions of A   symmetry.
 There are    52 symmetry adapted basis functions of A   symmetry.
    52 basis functions,   312 primitive gaussians,    52 cartesian basis functions
    28 alpha electrons       28 beta electrons
       nuclear repulsion energy       299.1145537484 Hartrees.
 Integral buffers will be    131072 words long.
 Regular integral format.
 Two-electron integral symmetry is turned off.
 Nuclear repulsion after empirical dispersion term =      299.1106121552 Hartrees.
 ------------------------------------------------------------------------------
 Polarizable Continuum Model (PCM)
 =================================
 Model                : C-PCM.
 Atomic radii         : UFF (Universal Force Field).
 Polarization charges : Total charges.
 Charge compensation  : None.
 Solution method      : On-the-fly selection.
 Cavity type          : Scaled VdW (van der Waals Surface) (Alpha=1.100).
 Cavity algorithm     : GePol (No added spheres)
                        Default sphere list used, NSphG=   22.
                        Lebedev-Laikov grids with approx.  5.0 points / Ang**2.
                        Smoothing algorithm: Karplus/York (Gamma=1.0000).
                        Polarization charges: spherical gaussians, with
                                              point-specific exponents (IZeta= 3).
                        Self-potential: point-specific (ISelfS= 7).
                        Self-field    : sphere-specific E.n sum rule (ISelfD= 2).
 1st derivatives      : Analytical E(r).r(x)/FMM algorithm (CHGder, D1EAlg=3).
                        Cavity 1st derivative terms included.
 Solvent              : Water, Eps=  78.355300 Eps(inf)=   1.777849
 ------------------------------------------------------------------------------
 Do NDO integrals.
 One-electron integrals computed using PRISM.
 NBasis=    52 RedAO= F EigKep=  0.00D+00  NBF=    52
 NBsUse=    52 1.00D-04 EigRej=  0.00D+00 NBFU=    52
 Simple Huckel Guess.
 Overlap will be assumed to be unity.
 Keep J ints in memory in canonical form, NReq=6622980.
 Requested convergence on RMS density matrix=1.00D-08 within 128 cycles.
 Requested convergence on MAX density matrix=1.00D-06.
 Requested convergence on             energy=1.00D-06.
 No special actions if energy rises.
 Inv3:  Mode=1 IEnd=     9623043.
 Iteration    1 A*A^-1 deviation from unit magnitude is 6.00D-15 for   1787.
 Iteration    1 A*A^-1 deviation from orthogonality  is 4.58D-15 for   1787   1340.
 Iteration    1 A^-1*A deviation from unit magnitude is 6.00D-15 for   1787.
 Iteration    1 A^-1*A deviation from orthogonality  is 1.91D-15 for   1786   1322.
 Error on total polarization charges = -0.00010
 SCF Done:  E(RPM6D3) = -0.129110727107     A.U. after   15 cycles
            NFock= 14  Conv=0.64D-08     -V/T= 0.9962

 **********************************************************************

            Population analysis using the SCF density.

 **********************************************************************

 Orbital symmetries:
       Occupied  (A) (A) (A) (A) (A) (A) (A) (A) (A) (A) (A) (A)
                 (A) (A) (A) (A) (A) (A) (A) (A) (A) (A) (A) (A)
                 (A) (A) (A) (A)
       Virtual   (A) (A) (A) (A) (A) (A) (A) (A) (A) (A) (A) (A)
                 (A) (A) (A) (A) (A) (A) (A) (A) (A) (A) (A) (A)
 The electronic state is 1-A.
 Alpha  occ. eigenvalues --   -1.18983  -1.13222  -1.05347  -1.01285  -0.99082
 Alpha  occ. eigenvalues --   -0.94307  -0.84825  -0.79463  -0.75253  -0.68706
 Alpha  occ. eigenvalues --   -0.65768  -0.63579  -0.61801  -0.58431  -0.56155
 Alpha  occ. eigenvalues --   -0.55668  -0.53002  -0.52250  -0.51872  -0.51229
 Alpha  occ. eigenvalues --   -0.50118  -0.48296  -0.45750  -0.44841  -0.43425
 Alpha  occ. eigenvalues --   -0.41975  -0.40743  -0.34731
 Alpha virt. eigenvalues --    0.00928   0.01553   0.03133   0.05801   0.09010
 Alpha virt. eigenvalues --    0.12080   0.13504   0.15202   0.16109   0.17784
 Alpha virt. eigenvalues --    0.18052   0.18425   0.18665   0.18738   0.19009
 Alpha virt. eigenvalues --    0.19983   0.20706   0.20844   0.21181   0.21503
 Alpha virt. eigenvalues --    0.22203   0.22903   0.23386   0.24498
          Condensed to atoms (all electrons):
               1          2          3          4          5          6
     1  C    4.252177   0.000000   0.000000   0.000000   0.000000   0.000000
     2  H    0.000000   0.839277   0.000000   0.000000   0.000000   0.000000
     3  C    0.000000   0.000000   4.095313   0.000000   0.000000   0.000000
     4  H    0.000000   0.000000   0.000000   0.843063   0.000000   0.000000
     5  C    0.000000   0.000000   0.000000   0.000000   4.047666   0.000000
     6  H    0.000000   0.000000   0.000000   0.000000   0.000000   0.860547
     7  C    0.000000   0.000000   0.000000   0.000000   0.000000   0.000000
     8  H    0.000000   0.000000   0.000000   0.000000   0.000000   0.000000
     9  H    0.000000   0.000000   0.000000   0.000000   0.000000   0.000000
    10  H    0.000000   0.000000   0.000000   0.000000   0.000000   0.000000
    11  C    0.000000   0.000000   0.000000   0.000000   0.000000   0.000000
    12  H    0.000000   0.000000   0.000000   0.000000   0.000000   0.000000
    13  C    0.000000   0.000000   0.000000   0.000000   0.000000   0.000000
    14  H    0.000000   0.000000   0.000000   0.000000   0.000000   0.000000
    15  H    0.000000   0.000000   0.000000   0.000000   0.000000   0.000000
    16  C    0.000000   0.000000   0.000000   0.000000   0.000000   0.000000
    17  C    0.000000   0.000000   0.000000   0.000000   0.000000   0.000000
    18  H    0.000000   0.000000   0.000000   0.000000   0.000000   0.000000
    19  H    0.000000   0.000000   0.000000   0.000000   0.000000   0.000000
    20  H    0.000000   0.000000   0.000000   0.000000   0.000000   0.000000
    21  O    0.000000   0.000000   0.000000   0.000000   0.000000   0.000000
    22  O    0.000000   0.000000   0.000000   0.000000   0.000000   0.000000
               7          8          9         10         11         12
     1  C    0.000000   0.000000   0.000000   0.000000   0.000000   0.000000
     2  H    0.000000   0.000000   0.000000   0.000000   0.000000   0.000000
     3  C    0.000000   0.000000   0.000000   0.000000   0.000000   0.000000
     4  H    0.000000   0.000000   0.000000   0.000000   0.000000   0.000000
     5  C    0.000000   0.000000   0.000000   0.000000   0.000000   0.000000
     6  H    0.000000   0.000000   0.000000   0.000000   0.000000   0.000000
     7  C    4.495739   0.000000   0.000000   0.000000   0.000000   0.000000
     8  H    0.000000   0.829180   0.000000   0.000000   0.000000   0.000000
     9  H    0.000000   0.000000   0.835377   0.000000   0.000000   0.000000
    10  H    0.000000   0.000000   0.000000   0.828935   0.000000   0.000000
    11  C    0.000000   0.000000   0.000000   0.000000   4.232662   0.000000
    12  H    0.000000   0.000000   0.000000   0.000000   0.000000   0.828830
    13  C    0.000000   0.000000   0.000000   0.000000   0.000000   0.000000
    14  H    0.000000   0.000000   0.000000   0.000000   0.000000   0.000000
    15  H    0.000000   0.000000   0.000000   0.000000   0.000000   0.000000
    16  C    0.000000   0.000000   0.000000   0.000000   0.000000   0.000000
    17  C    0.000000   0.000000   0.000000   0.000000   0.000000   0.000000
    18  H    0.000000   0.000000   0.000000   0.000000   0.000000   0.000000
    19  H    0.000000   0.000000   0.000000   0.000000   0.000000   0.000000
    20  H    0.000000   0.000000   0.000000   0.000000   0.000000   0.000000
    21  O    0.000000   0.000000   0.000000   0.000000   0.000000   0.000000
    22  O    0.000000   0.000000   0.000000   0.000000   0.000000   0.000000
              13         14         15         16         17         18
     1  C    0.000000   0.000000   0.000000   0.000000   0.000000   0.000000
     2  H    0.000000   0.000000   0.000000   0.000000   0.000000   0.000000
     3  C    0.000000   0.000000   0.000000   0.000000   0.000000   0.000000
     4  H    0.000000   0.000000   0.000000   0.000000   0.000000   0.000000
     5  C    0.000000   0.000000   0.000000   0.000000   0.000000   0.000000
     6  H    0.000000   0.000000   0.000000   0.000000   0.000000   0.000000
     7  C    0.000000   0.000000   0.000000   0.000000   0.000000   0.000000
     8  H    0.000000   0.000000   0.000000   0.000000   0.000000   0.000000
     9  H    0.000000   0.000000   0.000000   0.000000   0.000000   0.000000
    10  H    0.000000   0.000000   0.000000   0.000000   0.000000   0.000000
    11  C    0.000000   0.000000   0.000000   0.000000   0.000000   0.000000
    12  H    0.000000   0.000000   0.000000   0.000000   0.000000   0.000000
    13  C    3.985143   0.000000   0.000000   0.000000   0.000000   0.000000
    14  H    0.000000   0.851912   0.000000   0.000000   0.000000   0.000000
    15  H    0.000000   0.000000   0.852386   0.000000   0.000000   0.000000
    16  C    0.000000   0.000000   0.000000   3.281549   0.000000   0.000000
    17  C    0.000000   0.000000   0.000000   0.000000   4.642930   0.000000
    18  H    0.000000   0.000000   0.000000   0.000000   0.000000   0.780915
    19  H    0.000000   0.000000   0.000000   0.000000   0.000000   0.000000
    20  H    0.000000   0.000000   0.000000   0.000000   0.000000   0.000000
    21  O    0.000000   0.000000   0.000000   0.000000   0.000000   0.000000
    22  O    0.000000   0.000000   0.000000   0.000000   0.000000   0.000000
              19         20         21         22
     1  C    0.000000   0.000000   0.000000   0.000000
     2  H    0.000000   0.000000   0.000000   0.000000
     3  C    0.000000   0.000000   0.000000   0.000000
     4  H    0.000000   0.000000   0.000000   0.000000
     5  C    0.000000   0.000000   0.000000   0.000000
     6  H    0.000000   0.000000   0.000000   0.000000
     7  C    0.000000   0.000000   0.000000   0.000000
     8  H    0.000000   0.000000   0.000000   0.000000
     9  H    0.000000   0.000000   0.000000   0.000000
    10  H    0.000000   0.000000   0.000000   0.000000
    11  C    0.000000   0.000000   0.000000   0.000000
    12  H    0.000000   0.000000   0.000000   0.000000
    13  C    0.000000   0.000000   0.000000   0.000000
    14  H    0.000000   0.000000   0.000000   0.000000
    15  H    0.000000   0.000000   0.000000   0.000000
    16  C    0.000000   0.000000   0.000000   0.000000
    17  C    0.000000   0.000000   0.000000   0.000000
    18  H    0.000000   0.000000   0.000000   0.000000
    19  H    0.784526   0.000000   0.000000   0.000000
    20  H    0.000000   0.781230   0.000000   0.000000
    21  O    0.000000   0.000000   6.485066   0.000000
    22  O    0.000000   0.000000   0.000000   6.565577
 Mulliken charges:
               1
     1  C   -0.252177
     2  H    0.160723
     3  C   -0.095313
     4  H    0.156937
     5  C   -0.047666
     6  H    0.139453
     7  C   -0.495739
     8  H    0.170820
     9  H    0.164623
    10  H    0.171065
    11  C   -0.232662
    12  H    0.171170
    13  C    0.014857
    14  H    0.148088
    15  H    0.147614
    16  C    0.718451
    17  C   -0.642930
    18  H    0.219085
    19  H    0.215474
    20  H    0.218770
    21  O   -0.485066
    22  O   -0.565577
 Sum of Mulliken charges =   0.00000
 Mulliken charges with hydrogens summed into heavy atoms:
               1
     1  C   -0.091454
     3  C    0.061623
     5  C    0.091787
     7  C    0.010770
    11  C   -0.061492
    13  C    0.310559
    16  C    0.718451
    17  C    0.010400
    21  O   -0.485066
    22  O   -0.565577
 Charge=              0.0000 electrons
 Dipole moment (field-independent basis, Debye):
    X=             -1.4680    Y=             -6.4100    Z=             -0.1779  Tot=              6.5783
 N-N= 2.991106121552D+02 E-N=-5.278719567507D+02  KE=-3.380754980841D+01
 D1PCM: C-PCM CHGder 1st derivatives, ID1Alg=3 FixD1E=F DoIter=F DoCFld=F I1PDM=0.
 Calling FoFJK, ICntrl=      2127 FMM=F ISym2X=0 I1Cent= 0 IOpClX= 0 NMat=1 NMatS=1 NMatT=0.
 ***** Axes restored to original set *****
 -------------------------------------------------------------------
 Center     Atomic                   Forces (Hartrees/Bohr)
 Number     Number              X              Y              Z
 -------------------------------------------------------------------
      1        6          -0.000437537   -0.000369030   -0.000063188
      2        1           0.000068058   -0.000008892   -0.000014538
      3        6           0.000024868   -0.000326194    0.000019522
      4        1           0.000684078    0.000470753   -0.000144291
      5        6           0.000492315   -0.000059302    0.000060200
      6        1          -0.000038284    0.000329126    0.000104212
      7        6          -0.000987133   -0.000292622   -0.000185906
      8        1           0.000233901    0.000121044    0.000080604
      9        1           0.000238468   -0.000023133   -0.000032252
     10        1           0.000225212    0.000143229    0.000066479
     11        6          -0.000713157   -0.001364062    0.000035189
     12        1           0.000083838    0.000738888    0.000029705
     13        6           0.001685590    0.001883495   -0.000212189
     14        1          -0.000314082    0.000355317   -0.000270788
     15        1          -0.000299658    0.000388289    0.000315594
     16        6           0.001432478    0.010663862   -0.000700278
     17        6           0.001019751   -0.005059715    0.000225115
     18        1           0.000035945    0.000945754   -0.000478207
     19        1          -0.000318682    0.000761802   -0.000030866
     20        1           0.000119511    0.000995176    0.000357985
     21        8          -0.002307642   -0.003671207    0.000396356
     22        8          -0.000927837   -0.006622580    0.000441543
 -------------------------------------------------------------------
 Cartesian Forces:  Max     0.010663862 RMS     0.001836465

 GradGradGradGradGradGradGradGradGradGradGradGradGradGradGradGradGradGrad
 Berny optimization.
 FormGI is forming the generalized inverse of G from B-inverse, IUseBI=4.
 Internal  Forces:  Max     0.006604719 RMS     0.000904326
 Search for a local minimum.
 Step number   1 out of a maximum of  100
 All quantities printed in internal units (Hartrees-Bohrs-Radians)
 Mixed Optimization -- En-DIIS/RFO-DIIS
 Second derivative matrix not updated -- first step.
 ITU=  0
     Eigenvalues ---    0.00834   0.00859   0.00911   0.00954   0.01158
     Eigenvalues ---    0.01242   0.01745   0.01760   0.01955   0.02113
     Eigenvalues ---    0.02115   0.02877   0.02899   0.06797   0.07000
     Eigenvalues ---    0.07010   0.07219   0.07269   0.07289   0.11176
     Eigenvalues ---    0.13643   0.15998   0.15999   0.15999   0.16000
     Eigenvalues ---    0.16000   0.16000   0.16000   0.16000   0.16000
     Eigenvalues ---    0.16000   0.22000   0.22000   0.22000   0.22001
     Eigenvalues ---    0.22082   0.25000   0.25000   0.25000   0.32921
     Eigenvalues ---    0.32952   0.32967   0.33203   0.33539   0.33551
     Eigenvalues ---    0.33560   0.33633   0.33657   0.33862   0.33919
     Eigenvalues ---    0.33949   0.34442   0.34527   0.34562   0.36471
     Eigenvalues ---    0.36595   0.49086   0.57104   0.57486   0.98843
 RFO step:  Lambda=-1.62185472D-04 EMin= 8.33802762D-03
 Linear search not attempted -- first point.
 Iteration  1 RMS(Cart)=  0.01064369 RMS(Int)=  0.00003005
 Iteration  2 RMS(Cart)=  0.00005722 RMS(Int)=  0.00000310
 Iteration  3 RMS(Cart)=  0.00000000 RMS(Int)=  0.00000310
 Variable       Old X    -DE/DX   Delta X   Delta X   Delta X     New X
                                 (Linear)    (Quad)   (Total)
    R1        2.06590   0.00003   0.00000   0.00009   0.00009   2.06599
    R2        2.76652  -0.00018   0.00000  -0.00050  -0.00050   2.76602
    R3        2.53308   0.00030   0.00000   0.00052   0.00052   2.53360
    R4        2.07416  -0.00077   0.00000  -0.00228  -0.00228   2.07189
    R5        2.52987   0.00021   0.00000   0.00037   0.00037   2.53024
    R6        2.06450   0.00033   0.00000   0.00095   0.00095   2.06545
    R7        2.81380  -0.00027   0.00000  -0.00082  -0.00082   2.81298
    R8        2.07955   0.00014   0.00000   0.00042   0.00042   2.07996
    R9        2.07564   0.00009   0.00000   0.00026   0.00026   2.07591
   R10        2.07912   0.00020   0.00000   0.00060   0.00060   2.07972
   R11        2.06393   0.00067   0.00000   0.00194   0.00194   2.06587
   R12        2.82490  -0.00003   0.00000  -0.00008  -0.00008   2.82481
   R13        2.09136   0.00049   0.00000   0.00149   0.00149   2.09285
   R14        2.09109   0.00053   0.00000   0.00162   0.00162   2.09271
   R15        2.76461   0.00223   0.00000   0.00610   0.00610   2.77071
   R16        2.80768  -0.00243   0.00000  -0.00716  -0.00716   2.80052
   R17        2.60799  -0.00153   0.00000  -0.00311  -0.00311   2.60487
   R18        2.29106   0.00660   0.00000   0.00668   0.00668   2.29774
   R19        2.08116   0.00090   0.00000   0.00269   0.00269   2.08385
   R20        2.08697   0.00012   0.00000   0.00036   0.00036   2.08733
   R21        2.08094   0.00091   0.00000   0.00271   0.00271   2.08365
    A1        1.99624   0.00012   0.00000   0.00066   0.00066   1.99689
    A2        2.11912  -0.00001   0.00000  -0.00014  -0.00014   2.11898
    A3        2.16765  -0.00010   0.00000  -0.00046  -0.00046   2.16719
    A4        2.00546  -0.00028   0.00000  -0.00182  -0.00182   2.00364
    A5        2.17093  -0.00011   0.00000  -0.00048  -0.00048   2.17045
    A6        2.10671   0.00038   0.00000   0.00230   0.00230   2.10901
    A7        2.12354   0.00005   0.00000   0.00029   0.00029   2.12383
    A8        2.15670   0.00000   0.00000  -0.00001  -0.00001   2.15669
    A9        2.00290  -0.00004   0.00000  -0.00025  -0.00025   2.00265
   A10        1.93920   0.00013   0.00000   0.00067   0.00067   1.93987
   A11        1.97827   0.00031   0.00000   0.00245   0.00245   1.98072
   A12        1.93949   0.00005   0.00000  -0.00003  -0.00003   1.93947
   A13        1.86700  -0.00014   0.00000  -0.00022  -0.00022   1.86678
   A14        1.86651  -0.00026   0.00000  -0.00259  -0.00259   1.86391
   A15        1.86775  -0.00015   0.00000  -0.00061  -0.00061   1.86714
   A16        2.13627  -0.00034   0.00000  -0.00096  -0.00096   2.13530
   A17        2.16950   0.00134   0.00000   0.00608   0.00608   2.17559
   A18        1.97738  -0.00100   0.00000  -0.00511  -0.00511   1.97227
   A19        1.94852   0.00001   0.00000   0.00055   0.00055   1.94907
   A20        1.94936   0.00003   0.00000   0.00060   0.00060   1.94996
   A21        1.86058   0.00047   0.00000   0.00261   0.00261   1.86320
   A22        1.93016  -0.00018   0.00000  -0.00263  -0.00263   1.92753
   A23        1.88643  -0.00014   0.00000  -0.00027  -0.00027   1.88615
   A24        1.88525  -0.00019   0.00000  -0.00074  -0.00074   1.88451
   A25        2.08705   0.00128   0.00000   0.00513   0.00513   2.09218
   A26        2.21073   0.00068   0.00000   0.00272   0.00272   2.21345
   A27        1.98541  -0.00196   0.00000  -0.00785  -0.00785   1.97755
   A28        1.96526   0.00025   0.00000   0.00084   0.00083   1.96609
   A29        1.93672   0.00113   0.00000   0.00851   0.00849   1.94521
   A30        1.96564   0.00021   0.00000   0.00061   0.00060   1.96625
   A31        1.85673  -0.00053   0.00000  -0.00200  -0.00202   1.85471
   A32        1.87564  -0.00068   0.00000  -0.00675  -0.00675   1.86889
   A33        1.85706  -0.00051   0.00000  -0.00186  -0.00187   1.85519
   A34        2.10945  -0.00072   0.00000  -0.00288  -0.00288   2.10657
    D1        0.62539  -0.00006   0.00000  -0.00587  -0.00587   0.61951
    D2       -2.50277  -0.00006   0.00000  -0.00570  -0.00570  -2.50847
    D3       -2.49622  -0.00013   0.00000  -0.00926  -0.00926  -2.50548
    D4        0.65881  -0.00013   0.00000  -0.00909  -0.00909   0.64972
    D5       -3.12247  -0.00010   0.00000  -0.00464  -0.00464  -3.12711
    D6        0.00827  -0.00003   0.00000  -0.00063  -0.00063   0.00765
    D7       -0.00221  -0.00002   0.00000  -0.00101  -0.00101  -0.00323
    D8        3.12853   0.00005   0.00000   0.00300   0.00300   3.13153
    D9        0.00157  -0.00001   0.00000  -0.00064  -0.00064   0.00092
   D10        3.13406   0.00001   0.00000   0.00069   0.00069   3.13475
   D11       -3.12585   0.00000   0.00000  -0.00043  -0.00043  -3.12628
   D12        0.00664   0.00002   0.00000   0.00090   0.00090   0.00755
   D13       -2.07831  -0.00015   0.00000  -0.00380  -0.00380  -2.08211
   D14        0.02466  -0.00001   0.00000  -0.00188  -0.00188   0.02279
   D15        2.12883   0.00006   0.00000  -0.00097  -0.00097   2.12786
   D16        1.05312  -0.00008   0.00000  -0.00004  -0.00004   1.05308
   D17       -3.12710   0.00005   0.00000   0.00189   0.00189  -3.12521
   D18       -1.02293   0.00012   0.00000   0.00280   0.00280  -1.02014
   D19       -1.99488  -0.00011   0.00000  -0.00110  -0.00110  -1.99599
   D20        2.11708   0.00009   0.00000   0.00148   0.00148   2.11856
   D21        0.06158   0.00001   0.00000   0.00046   0.00046   0.06203
   D22        1.13835  -0.00009   0.00000   0.00013   0.00013   1.13848
   D23       -1.03287   0.00011   0.00000   0.00272   0.00272  -1.03016
   D24       -3.08838   0.00003   0.00000   0.00169   0.00169  -3.08669
   D25       -3.13426   0.00001   0.00000   0.00138   0.00138  -3.13289
   D26       -1.03731   0.00021   0.00000   0.00332   0.00332  -1.03398
   D27        1.05160  -0.00019   0.00000  -0.00037  -0.00037   1.05122
   D28        1.06684  -0.00027   0.00000  -0.00367  -0.00367   1.06317
   D29       -3.13726   0.00000   0.00000   0.00021   0.00021  -3.13705
   D30       -1.05749   0.00028   0.00000   0.00413   0.00413  -1.05335
   D31       -2.07450  -0.00027   0.00000  -0.00330  -0.00330  -2.07780
   D32        0.00459   0.00001   0.00000   0.00058   0.00058   0.00517
   D33        2.08436   0.00028   0.00000   0.00450   0.00450   2.08887
   D34       -0.00249   0.00002   0.00000   0.00101   0.00101  -0.00148
   D35        3.13887   0.00002   0.00000   0.00069   0.00069   3.13957
         Item               Value     Threshold  Converged?
 Maximum Force            0.006605     0.000450     NO 
 RMS     Force            0.000904     0.000300     NO 
 Maximum Displacement     0.033771     0.001800     NO 
 RMS     Displacement     0.010634     0.001200     NO 
 Predicted change in Energy=-8.117759D-05
 GradGradGradGradGradGradGradGradGradGradGradGradGradGradGradGradGradGrad

                          Input orientation:                          
 ---------------------------------------------------------------------
 Center     Atomic      Atomic             Coordinates (Angstroms)
 Number     Number       Type             X           Y           Z
 ---------------------------------------------------------------------
      1          6           0        2.562277   -0.601026   -0.328652
      2          1           0        2.853463   -1.459431   -0.939885
      3          6           0        1.117399   -0.385265   -0.237893
      4          1           0        0.515965   -1.301740   -0.217122
      5          6           0        3.477483    0.159288    0.289294
      6          1           0        3.190844    1.010423    0.912218
      7          6           0        4.943847   -0.079873    0.197618
      8          1           0        5.376100   -0.281241    1.189626
      9          1           0        5.209467   -0.929478   -0.446095
     10          1           0        5.465304    0.802470   -0.203313
     11          6           0        0.534326    0.819378   -0.197449
     12          1           0        1.109021    1.748738   -0.230934
     13          6           0       -0.940611    1.047348   -0.113203
     14          1           0       -1.331922    1.535283   -1.027163
     15          1           0       -1.214076    1.633723    0.785544
     16          6           0       -2.936705   -0.397939    0.087061
     17          6           0       -3.790525    0.813186    0.067013
     18          1           0       -3.683129    1.393074   -0.864758
     19          1           0       -4.861168    0.554062    0.148514
     20          1           0       -3.573868    1.499497    0.902365
     21          8           0       -1.566607   -0.273596    0.000647
     22          8           0       -3.310483   -1.551684    0.174242
 ---------------------------------------------------------------------
                    Distance matrix (angstroms):
                    1          2          3          4          5
     1  C    0.000000
     2  H    1.093277   0.000000
     3  C    1.463716   2.158829   0.000000
     4  H    2.165833   2.451765   1.096394   0.000000
     5  C    1.340722   2.126155   2.478803   3.340906   0.000000
     6  H    2.128761   3.105526   2.751341   3.711669   1.092990
     7  C    2.494080   2.750782   3.863243   4.612062   1.488565
     8  H    3.213259   3.505232   4.492791   5.161519   2.146954
     9  H    2.670073   2.464840   4.133345   4.713807   2.173932
    10  H    3.226930   3.532768   4.507349   5.378091   2.146574
    11  C    2.479385   3.335053   1.338946   2.121289   3.055292
    12  H    2.764578   3.719951   2.134031   3.107624   2.899414
    13  C    3.877342   4.621941   2.510644   2.765977   4.524402
    14  H    4.496279   5.147172   3.211016   3.481315   5.172698
    15  H    4.527293   5.393476   3.249540   3.551806   4.942767
    16  C    5.518412   5.975569   4.067126   3.581942   6.441523
    17  C    6.520326   7.093745   5.061321   4.806194   7.300749
    18  H    6.577913   7.132283   5.157569   5.031286   7.357202
    19  H    7.527912   8.047006   6.064232   5.700110   8.349178
    20  H    6.601506   7.311616   5.182712   5.082019   7.203720
    21  O    4.154917   4.672026   2.696898   2.332725   5.070853
    22  O    5.970424   6.264505   4.597447   3.854522   7.001224
                    6          7          8          9         10
     6  H    0.000000
     7  C    2.184587   0.000000
     8  H    2.553566   1.100669   0.000000
     9  H    3.111764   1.098522   1.767361   0.000000
    10  H    2.541815   1.100542   1.767107   1.767496   0.000000
    11  C    2.885298   4.517589   5.155397   4.997727   4.931011
    12  H    2.487145   4.270055   4.934245   4.902326   4.457958
    13  C    4.256967   5.999507   6.585086   6.468549   6.411227
    14  H    4.948948   6.595005   7.294620   7.014447   6.886075
    15  H    4.450603   6.418885   6.874648   7.024873   6.803156
    16  C    6.341232   7.887743   8.386418   8.180887   8.492294
    17  C    7.035111   8.780881   9.299734   9.181505   9.259783
    18  H    7.110244   8.816061   9.438933   9.200424   9.191308
    19  H    8.101013   9.825610  10.323920  10.196674  10.335450
    20  H    6.782376   8.691522   9.129923   9.212234   9.133182
    21  O    5.011288   6.516313   7.043786   6.822385   7.116691
    22  O    7.026824   8.384554   8.837520   8.565133   9.093901
                   11         12         13         14         15
    11  C    0.000000
    12  H    1.093209   0.000000
    13  C    1.494827   2.169516   0.000000
    14  H    2.164215   2.576383   1.107486   0.000000
    15  H    2.164796   2.538353   1.107414   1.819199   0.000000
    16  C    3.689291   4.590996   2.472520   2.748485   2.753722
    17  C    4.332934   4.996958   2.865191   2.786283   2.797796
    18  H    4.308289   4.846951   2.864571   2.361095   2.979535
    19  H    5.413081   6.100360   3.960126   3.847154   3.856522
    20  H    4.306903   4.824515   2.858297   2.958155   2.366492
    21  O    2.376501   3.361912   1.466195   2.093684   2.092418
    22  O    4.532400   5.530730   3.529006   3.858424   3.862050
                   16         17         18         19         20
    16  C    0.000000
    17  C    1.481970   0.000000
    18  H    2.161212   1.102725   0.000000
    19  H    2.147939   1.104565   1.765911   0.000000
    20  H    2.161241   1.102622   1.773693   1.766148   0.000000
    21  O    1.378440   2.476149   2.829555   3.400150   2.825961
    22  O    1.215910   2.415481   3.144835   2.615235   3.147895
                   21         22
    21  O    0.000000
    22  O    2.169042   0.000000
 Stoichiometry    C8H12O2
 Framework group  C1[X(C8H12O2)]
 Deg. of freedom    60
 Full point group                 C1      NOp   1
 Largest Abelian subgroup         C1      NOp   1
 Largest concise Abelian subgroup C1      NOp   1
                         Standard orientation:                         
 ---------------------------------------------------------------------
 Center     Atomic      Atomic             Coordinates (Angstroms)
 Number     Number       Type             X           Y           Z
 ---------------------------------------------------------------------
      1          6           0       -2.564268    0.600702   -0.326056
      2          1           0       -2.855360    1.461829   -0.933493
      3          6           0       -1.119409    0.384457   -0.236150
      4          1           0       -0.517924    1.300796   -0.211265
      5          6           0       -3.479563   -0.162296    0.288440
      6          1           0       -3.193018   -1.016206    0.907600
      7          6           0       -4.945907    0.077353    0.197719
      8          1           0       -5.378222    0.274339    1.190580
      9          1           0       -5.211431    0.929824   -0.442234
     10          1           0       -5.467385   -0.803171   -0.207164
     11          6           0       -0.536408   -0.820388   -0.201013
     12          1           0       -1.111154   -1.749557   -0.238667
     13          6           0        0.938510   -1.048815   -0.117672
     14          1           0        1.329860   -1.532708   -1.033761
     15          1           0        1.211875   -1.639191    0.778482
     16          6           0        2.934672    0.395455    0.089154
     17          6           0        3.788424   -0.815619    0.063792
     18          1           0        3.681063   -1.391357   -0.870553
     19          1           0        4.859076   -0.556920    0.146521
     20          1           0        3.571667   -1.505620    0.896072
     21          8           0        1.564573    0.271576    0.002088
     22          8           0        3.308509    1.548780    0.181486
 ---------------------------------------------------------------------
 Rotational constants (GHZ):      4.7100811      0.4183549      0.3910341
 Standard basis: VSTO-6G (5D, 7F)
 There are    52 symmetry adapted cartesian basis functions of A   symmetry.
 There are    52 symmetry adapted basis functions of A   symmetry.
    52 basis functions,   312 primitive gaussians,    52 cartesian basis functions
    28 alpha electrons       28 beta electrons
       nuclear repulsion energy       298.9976703781 Hartrees.
 Integral buffers will be    131072 words long.
 Regular integral format.
 Two-electron integral symmetry is turned off.
 Nuclear repulsion after empirical dispersion term =      298.9937374954 Hartrees.
 ------------------------------------------------------------------------------
 Polarizable Continuum Model (PCM)
 =================================
 Model                : C-PCM.
 Atomic radii         : UFF (Universal Force Field).
 Polarization charges : Total charges.
 Charge compensation  : None.
 Solution method      : On-the-fly selection.
 Cavity type          : Scaled VdW (van der Waals Surface) (Alpha=1.100).
 Cavity algorithm     : GePol (No added spheres)
                        Default sphere list used, NSphG=   22.
                        Lebedev-Laikov grids with approx.  5.0 points / Ang**2.
                        Smoothing algorithm: Karplus/York (Gamma=1.0000).
                        Polarization charges: spherical gaussians, with
                                              point-specific exponents (IZeta= 3).
                        Self-potential: point-specific (ISelfS= 7).
                        Self-field    : sphere-specific E.n sum rule (ISelfD= 2).
 1st derivatives      : Analytical E(r).r(x)/FMM algorithm (CHGder, D1EAlg=3).
                        Cavity 1st derivative terms included.
 Solvent              : Water, Eps=  78.355300 Eps(inf)=   1.777849
 ------------------------------------------------------------------------------
 Do NDO integrals.
 One-electron integrals computed using PRISM.
 NBasis=    52 RedAO= F EigKep=  0.00D+00  NBF=    52
 NBsUse=    52 1.00D-04 EigRej=  0.00D+00 NBFU=    52
 Initial guess from the checkpoint file:  "water_diene_pm6_cpcmtoluene.chk"
 B after Tr=     0.000000    0.000000    0.000000
         Rot=    0.999998   -0.001968   -0.000060    0.000177 Ang=  -0.23 deg.
 Overlap will be assumed to be unity.
 Keep J ints in memory in canonical form, NReq=6615418.
 Requested convergence on RMS density matrix=1.00D-08 within 128 cycles.
 Requested convergence on MAX density matrix=1.00D-06.
 Requested convergence on             energy=1.00D-06.
 No special actions if energy rises.
 Inv3:  Mode=1 IEnd=     9601563.
 Iteration    1 A*A^-1 deviation from unit magnitude is 5.00D-15 for   1789.
 Iteration    1 A*A^-1 deviation from orthogonality  is 2.03D-15 for   1781   1438.
 Iteration    1 A^-1*A deviation from unit magnitude is 5.11D-15 for   1789.
 Iteration    1 A^-1*A deviation from orthogonality  is 2.49D-15 for   1776    359.
 Error on total polarization charges = -0.00011
 SCF Done:  E(RPM6D3) = -0.129218403553     A.U. after   12 cycles
            NFock= 11  Conv=0.41D-08     -V/T= 0.9962
 D1PCM: C-PCM CHGder 1st derivatives, ID1Alg=3 FixD1E=F DoIter=F DoCFld=F I1PDM=0.
 Calling FoFJK, ICntrl=      2127 FMM=F ISym2X=0 I1Cent= 0 IOpClX= 0 NMat=1 NMatS=1 NMatT=0.
 ***** Axes restored to original set *****
 -------------------------------------------------------------------
 Center     Atomic                   Forces (Hartrees/Bohr)
 Number     Number              X              Y              Z
 -------------------------------------------------------------------
      1        6           0.000025745    0.000029635   -0.000074856
      2        1           0.000041057   -0.000047458    0.000122708
      3        6          -0.000333171    0.000227830    0.000030707
      4        1           0.000111361    0.000205527   -0.000099316
      5        6           0.000257806   -0.000009469   -0.000205642
      6        1          -0.000017927    0.000033427    0.000077920
      7        6          -0.000451375   -0.000185626   -0.000025857
      8        1           0.000121119    0.000041221    0.000043451
      9        1           0.000031879    0.000038303    0.000029364
     10        1           0.000125035    0.000083912    0.000008492
     11        6          -0.000893087   -0.001034505    0.000147905
     12        1           0.000094627    0.000372518   -0.000007954
     13        6           0.001215484    0.000751228   -0.000140671
     14        1          -0.000114506   -0.000050144   -0.000006172
     15        1          -0.000121506   -0.000053859    0.000043299
     16        6           0.000737413    0.004051077   -0.000308012
     17        6           0.000377949   -0.002415080    0.000131121
     18        1          -0.000076734    0.000562449   -0.000263829
     19        1          -0.000006602    0.000330082   -0.000020730
     20        1          -0.000034139    0.000594528    0.000211141
     21        8          -0.000446833   -0.000961545    0.000124333
     22        8          -0.000643595   -0.002564051    0.000182598
 -------------------------------------------------------------------
 Cartesian Forces:  Max     0.004051077 RMS     0.000747652

 GradGradGradGradGradGradGradGradGradGradGradGradGradGradGradGradGradGrad
 Berny optimization.
 Using GEDIIS/GDIIS optimizer.
 FormGI is forming the generalized inverse of G from B-inverse, IUseBI=4.
 Internal  Forces:  Max     0.002646469 RMS     0.000359706
 Search for a local minimum.
 Step number   2 out of a maximum of  100
 All quantities printed in internal units (Hartrees-Bohrs-Radians)
 Mixed Optimization -- En-DIIS/RFO-DIIS
 Swapping is turned off.
 Update second derivatives using D2CorX and points    1    2
 DE= -1.08D-04 DEPred=-8.12D-05 R= 1.33D+00
 TightC=F SS=  1.41D+00  RLast= 2.99D-02 DXNew= 5.0454D-01 8.9826D-02
 Trust test= 1.33D+00 RLast= 2.99D-02 DXMaxT set to 3.00D-01
 ITU=  1  0
     Eigenvalues ---    0.00834   0.00859   0.00911   0.00954   0.01157
     Eigenvalues ---    0.01192   0.01746   0.01773   0.01956   0.02117
     Eigenvalues ---    0.02128   0.02875   0.02899   0.06770   0.06813
     Eigenvalues ---    0.06987   0.07198   0.07263   0.07342   0.11035
     Eigenvalues ---    0.13653   0.13976   0.15999   0.15999   0.16000
     Eigenvalues ---    0.16000   0.16000   0.16000   0.16000   0.16000
     Eigenvalues ---    0.16207   0.21163   0.22000   0.22000   0.22006
     Eigenvalues ---    0.22448   0.23387   0.25000   0.25449   0.30589
     Eigenvalues ---    0.32958   0.33009   0.33197   0.33521   0.33545
     Eigenvalues ---    0.33559   0.33632   0.33655   0.33852   0.33939
     Eigenvalues ---    0.34296   0.34450   0.34511   0.34579   0.36430
     Eigenvalues ---    0.37486   0.48865   0.57097   0.57947   0.87876
 En-DIIS/RFO-DIIS IScMMF=        0 using points:     2    1
 RFO step:  Lambda=-2.08611526D-05.
 DidBck=F Rises=F RFO-DIIS coefs:    1.49667   -0.49667
 Iteration  1 RMS(Cart)=  0.00584323 RMS(Int)=  0.00001995
 Iteration  2 RMS(Cart)=  0.00002203 RMS(Int)=  0.00000354
 Iteration  3 RMS(Cart)=  0.00000000 RMS(Int)=  0.00000354
 Variable       Old X    -DE/DX   Delta X   Delta X   Delta X     New X
                                 (Linear)    (Quad)   (Total)
    R1        2.06599  -0.00002   0.00005  -0.00013  -0.00008   2.06591
    R2        2.76602   0.00013  -0.00025   0.00073   0.00048   2.76651
    R3        2.53360   0.00003   0.00026  -0.00011   0.00015   2.53375
    R4        2.07189  -0.00024  -0.00113  -0.00021  -0.00134   2.07055
    R5        2.53024  -0.00043   0.00018  -0.00126  -0.00108   2.52916
    R6        2.06545   0.00008   0.00047  -0.00001   0.00046   2.06592
    R7        2.81298  -0.00017  -0.00041  -0.00047  -0.00088   2.81210
    R8        2.07996   0.00008   0.00021   0.00020   0.00041   2.08037
    R9        2.07591  -0.00004   0.00013  -0.00029  -0.00016   2.07575
   R10        2.07972   0.00013   0.00030   0.00034   0.00064   2.08036
   R11        2.06587   0.00037   0.00096   0.00088   0.00184   2.06771
   R12        2.82481  -0.00084  -0.00004  -0.00380  -0.00384   2.82097
   R13        2.09285   0.00002   0.00074  -0.00043   0.00031   2.09315
   R14        2.09271   0.00004   0.00081  -0.00043   0.00037   2.09308
   R15        2.77071   0.00043   0.00303  -0.00048   0.00255   2.77326
   R16        2.80052  -0.00092  -0.00356  -0.00145  -0.00500   2.79551
   R17        2.60487  -0.00040  -0.00155  -0.00010  -0.00164   2.60323
   R18        2.29774   0.00265   0.00332   0.00157   0.00489   2.30263
   R19        2.08385   0.00051   0.00133   0.00130   0.00263   2.08648
   R20        2.08733  -0.00007   0.00018  -0.00045  -0.00027   2.08705
   R21        2.08365   0.00052   0.00135   0.00133   0.00268   2.08633
    A1        1.99689   0.00003   0.00033   0.00011   0.00043   1.99733
    A2        2.11898  -0.00008  -0.00007  -0.00068  -0.00075   2.11823
    A3        2.16719   0.00005  -0.00023   0.00050   0.00027   2.16747
    A4        2.00364   0.00001  -0.00090   0.00080  -0.00011   2.00353
    A5        2.17045   0.00000  -0.00024   0.00016  -0.00008   2.17038
    A6        2.10901  -0.00001   0.00114  -0.00096   0.00018   2.10919
    A7        2.12383   0.00000   0.00014  -0.00012   0.00002   2.12385
    A8        2.15669   0.00001   0.00000   0.00010   0.00009   2.15678
    A9        2.00265  -0.00001  -0.00013   0.00000  -0.00012   2.00253
   A10        1.93987   0.00009   0.00033   0.00056   0.00089   1.94075
   A11        1.98072   0.00005   0.00122  -0.00025   0.00096   1.98168
   A12        1.93947   0.00005  -0.00001   0.00035   0.00033   1.93980
   A13        1.86678  -0.00004  -0.00011  -0.00005  -0.00016   1.86661
   A14        1.86391  -0.00012  -0.00129  -0.00060  -0.00189   1.86203
   A15        1.86714  -0.00004  -0.00030  -0.00006  -0.00037   1.86677
   A16        2.13530  -0.00002  -0.00048   0.00052   0.00004   2.13534
   A17        2.17559   0.00028   0.00302  -0.00030   0.00272   2.17830
   A18        1.97227  -0.00026  -0.00254  -0.00022  -0.00276   1.96951
   A19        1.94907   0.00014   0.00027   0.00146   0.00173   1.95080
   A20        1.94996   0.00015   0.00030   0.00151   0.00181   1.95177
   A21        1.86320  -0.00019   0.00130  -0.00253  -0.00123   1.86196
   A22        1.92753  -0.00004  -0.00131   0.00126  -0.00005   1.92749
   A23        1.88615  -0.00003  -0.00014  -0.00098  -0.00111   1.88504
   A24        1.88451  -0.00004  -0.00037  -0.00105  -0.00142   1.88309
   A25        2.09218   0.00065   0.00255   0.00200   0.00455   2.09673
   A26        2.21345  -0.00012   0.00135  -0.00169  -0.00034   2.21311
   A27        1.97755  -0.00053  -0.00390  -0.00031  -0.00421   1.97334
   A28        1.96609   0.00029   0.00041   0.00213   0.00254   1.96863
   A29        1.94521   0.00035   0.00422   0.00075   0.00495   1.95016
   A30        1.96625   0.00028   0.00030   0.00214   0.00243   1.96868
   A31        1.85471  -0.00029  -0.00100  -0.00148  -0.00250   1.85221
   A32        1.86889  -0.00044  -0.00335  -0.00261  -0.00596   1.86293
   A33        1.85519  -0.00028  -0.00093  -0.00142  -0.00237   1.85282
   A34        2.10657  -0.00014  -0.00143   0.00022  -0.00121   2.10536
    D1        0.61951  -0.00011  -0.00292  -0.00971  -0.01263   0.60688
    D2       -2.50847  -0.00011  -0.00283  -0.00980  -0.01263  -2.52111
    D3       -2.50548  -0.00006  -0.00460  -0.00546  -0.01006  -2.51554
    D4        0.64972  -0.00007  -0.00452  -0.00555  -0.01006   0.63965
    D5       -3.12711   0.00003  -0.00230   0.00416   0.00186  -3.12525
    D6        0.00765  -0.00001  -0.00031  -0.00028  -0.00059   0.00705
    D7       -0.00323  -0.00002  -0.00050  -0.00036  -0.00087  -0.00410
    D8        3.13153  -0.00005   0.00149  -0.00481  -0.00332   3.12821
    D9        0.00092   0.00000  -0.00032   0.00048   0.00016   0.00109
   D10        3.13475   0.00000   0.00034  -0.00026   0.00009   3.13484
   D11       -3.12628   0.00000  -0.00021   0.00038   0.00016  -3.12612
   D12        0.00755   0.00000   0.00045  -0.00036   0.00008   0.00763
   D13       -2.08211  -0.00002  -0.00189   0.00125  -0.00063  -2.08274
   D14        0.02279   0.00002  -0.00093   0.00142   0.00049   0.02327
   D15        2.12786   0.00004  -0.00048   0.00141   0.00094   2.12880
   D16        1.05308  -0.00005  -0.00002  -0.00291  -0.00293   1.05015
   D17       -3.12521  -0.00001   0.00094  -0.00275  -0.00181  -3.12702
   D18       -1.02014   0.00000   0.00139  -0.00275  -0.00136  -1.02150
   D19       -1.99599   0.00008  -0.00055   0.00216   0.00162  -1.99437
   D20        2.11856  -0.00008   0.00074  -0.00173  -0.00100   2.11757
   D21        0.06203   0.00001   0.00023   0.00025   0.00048   0.06251
   D22        1.13848   0.00008   0.00006   0.00149   0.00155   1.14003
   D23       -1.03016  -0.00008   0.00135  -0.00241  -0.00106  -1.03122
   D24       -3.08669   0.00000   0.00084  -0.00043   0.00041  -3.08627
   D25       -3.13289   0.00000   0.00068  -0.00001   0.00067  -3.13222
   D26       -1.03398   0.00005   0.00165  -0.00021   0.00144  -1.03254
   D27        1.05122  -0.00004  -0.00019   0.00016  -0.00002   1.05120
   D28        1.06317  -0.00007  -0.00182   0.00078  -0.00105   1.06212
   D29       -3.13705   0.00001   0.00010   0.00087   0.00098  -3.13607
   D30       -1.05335   0.00008   0.00205   0.00105   0.00310  -1.05025
   D31       -2.07780  -0.00008  -0.00164  -0.00067  -0.00232  -2.08012
   D32        0.00517   0.00000   0.00029  -0.00058  -0.00029   0.00488
   D33        2.08887   0.00007   0.00224  -0.00041   0.00183   2.09070
   D34       -0.00148  -0.00002   0.00050  -0.00189  -0.00139  -0.00287
   D35        3.13957  -0.00001   0.00034  -0.00062  -0.00028   3.13929
         Item               Value     Threshold  Converged?
 Maximum Force            0.002646     0.000450     NO 
 RMS     Force            0.000360     0.000300     NO 
 Maximum Displacement     0.020345     0.001800     NO 
 RMS     Displacement     0.005846     0.001200     NO 
 Predicted change in Energy=-2.409194D-05
 GradGradGradGradGradGradGradGradGradGradGradGradGradGradGradGradGradGrad

                          Input orientation:                          
 ---------------------------------------------------------------------
 Center     Atomic      Atomic             Coordinates (Angstroms)
 Number     Number       Type             X           Y           Z
 ---------------------------------------------------------------------
      1          6           0        2.562277   -0.602872   -0.328163
      2          1           0        2.854288   -1.466304   -0.931795
      3          6           0        1.116999   -0.387746   -0.238124
      4          1           0        0.516260   -1.303909   -0.221185
      5          6           0        3.477419    0.162040    0.284347
      6          1           0        3.190596    1.017656    0.901452
      7          6           0        4.943252   -0.079001    0.196732
      8          1           0        5.375109   -0.271573    1.190898
      9          1           0        5.210066   -0.933856   -0.439352
     10          1           0        5.466541    0.799845   -0.210379
     11          6           0        0.533927    0.816136   -0.194101
     12          1           0        1.108961    1.746557   -0.223931
     13          6           0       -0.938501    1.047262   -0.110583
     14          1           0       -1.329817    1.537761   -1.023363
     15          1           0       -1.213397    1.630512    0.790003
     16          6           0       -2.936523   -0.395552    0.083074
     17          6           0       -3.791222    0.811772    0.067193
     18          1           0       -3.684922    1.398929   -0.861796
     19          1           0       -4.862529    0.555564    0.147209
     20          1           0       -3.576328    1.499058    0.904068
     21          8           0       -1.566865   -0.274416   -0.000967
     22          8           0       -3.309187   -1.552664    0.166440
 ---------------------------------------------------------------------
                    Distance matrix (angstroms):
                    1          2          3          4          5
     1  C    0.000000
     2  H    1.093232   0.000000
     3  C    1.463972   2.159314   0.000000
     4  H    2.165429   2.449023   1.095686   0.000000
     5  C    1.340800   2.125747   2.479279   3.342609   0.000000
     6  H    2.129049   3.105472   2.752016   3.715111   1.093235
     7  C    2.493792   2.749901   3.863241   4.612300   1.488101
     8  H    3.213928   3.505388   4.493005   5.164118   2.147343
     9  H    2.670712   2.464892   4.134238   4.713422   2.174119
    10  H    3.227420   3.532667   4.508842   5.378771   2.146661
    11  C    2.479064   3.337334   1.338373   2.120291   3.053015
    12  H    2.764562   3.724206   2.134365   3.107514   2.894586
    13  C    3.876303   4.623597   2.510099   2.767050   4.521055
    14  H    4.495999   5.151653   3.211088   3.482323   5.168388
    15  H    4.527031   5.394527   3.249793   3.553173   4.941239
    16  C    5.518052   5.975781   4.066235   3.583210   6.441278
    17  C    6.521078   7.095802   5.061886   4.807667   7.300852
    18  H    6.581752   7.139729   5.161359   5.036432   7.358170
    19  H    7.529654   8.049935   6.065729   5.703045   8.350353
    20  H    6.604466   7.315503   5.185745   5.086462   7.206040
    21  O    4.155087   4.672647   2.696704   2.334044   5.071163
    22  O    5.968318   6.261150   4.594761   3.853073   7.000866
                    6          7          8          9         10
     6  H    0.000000
     7  C    2.184282   0.000000
     8  H    2.553035   1.100886   0.000000
     9  H    3.111979   1.098439   1.767363   0.000000
    10  H    2.542349   1.100882   1.766316   1.767463   0.000000
    11  C    2.880753   4.516212   5.151541   4.998889   4.932668
    12  H    2.476083   4.267482   4.926926   4.904088   4.459255
    13  C    4.251415   5.996493   6.579882   6.468214   6.410596
    14  H    4.940603   6.591961   7.289216   7.015699   6.884472
    15  H    4.447827   6.417065   6.869283   7.024825   6.805317
    16  C    6.341016   7.886949   8.386052   8.181052   8.492736
    17  C    7.034497   8.780733   9.298277   9.182972   9.261931
    18  H    7.108246   8.817604   9.438659   9.205496   9.194157
    19  H    8.101557   9.826416  10.323888  10.198999  10.338144
    20  H    6.784026   8.693321   9.129383   9.215452   9.138073
    21  O    5.011711   6.516049   7.043547   6.823037   7.118054
    22  O    7.028084   8.383039   8.837856   8.563152   9.093387
                   11         12         13         14         15
    11  C    0.000000
    12  H    1.094184   0.000000
    13  C    1.492795   2.166555   0.000000
    14  H    2.163784   2.574942   1.107648   0.000000
    15  H    2.164442   2.536705   1.107611   1.819464   0.000000
    16  C    3.686331   4.587900   2.472106   2.746526   2.752063
    17  C    4.333036   4.997036   2.867939   2.788348   2.799637
    18  H    4.310934   4.848611   2.868941   2.364719   2.981695
    19  H    5.413513   6.100401   3.963107   3.849026   3.858091
    20  H    4.308892   4.825512   2.862126   2.960287   2.369332
    21  O    2.374853   3.360668   1.467545   2.094151   2.092684
    22  O    4.528876   5.527864   3.529378   3.858012   3.861836
                   16         17         18         19         20
    16  C    0.000000
    17  C    1.479322   0.000000
    18  H    2.161723   1.104117   0.000000
    19  H    2.149008   1.104420   1.765252   0.000000
    20  H    2.161697   1.104039   1.772031   1.765596   0.000000
    21  O    1.377570   2.476330   2.833245   3.401797   2.828824
    22  O    1.218498   2.415112   3.148071   2.618753   3.150948
                   21         22
    21  O    0.000000
    22  O    2.167401   0.000000
 Stoichiometry    C8H12O2
 Framework group  C1[X(C8H12O2)]
 Deg. of freedom    60
 Full point group                 C1      NOp   1
 Largest Abelian subgroup         C1      NOp   1
 Largest concise Abelian subgroup C1      NOp   1
                         Standard orientation:                         
 ---------------------------------------------------------------------
 Center     Atomic      Atomic             Coordinates (Angstroms)
 Number     Number       Type             X           Y           Z
 ---------------------------------------------------------------------
      1          6           0       -2.564065    0.603456   -0.322858
      2          1           0       -2.855814    1.471713   -0.919658
      3          6           0       -1.118836    0.387458   -0.234137
      4          1           0       -0.518002    1.303389   -0.209718
      5          6           0       -3.479461   -0.166220    0.283272
      6          1           0       -3.192903   -1.026767    0.893606
      7          6           0       -4.945243    0.075676    0.197176
      8          1           0       -5.377357    0.260353    1.192728
      9          1           0       -5.211787    0.935611   -0.432136
     10          1           0       -5.468515   -0.799833   -0.217083
     11          6           0       -0.535907   -0.816802   -0.199565
     12          1           0       -1.111034   -1.746891   -0.236982
     13          6           0        0.936472   -1.048751   -0.117486
     14          1           0        1.327990   -1.531990   -1.034044
     15          1           0        1.211053   -1.639203    0.778491
     16          6           0        2.934597    0.392249    0.088239
     17          6           0        3.789169   -0.815005    0.062957
     18          1           0        3.683064   -1.394715   -0.870720
     19          1           0        4.860481   -0.559563    0.145313
     20          1           0        3.573967   -1.508927    0.894258
     21          8           0        1.564949    0.271940    0.002852
     22          8           0        3.307364    1.548617    0.180944
 ---------------------------------------------------------------------
 Rotational constants (GHZ):      4.7152191      0.4184596      0.3910749
 Standard basis: VSTO-6G (5D, 7F)
 There are    52 symmetry adapted cartesian basis functions of A   symmetry.
 There are    52 symmetry adapted basis functions of A   symmetry.
    52 basis functions,   312 primitive gaussians,    52 cartesian basis functions
    28 alpha electrons       28 beta electrons
       nuclear repulsion energy       299.0046052019 Hartrees.
 Integral buffers will be    131072 words long.
 Regular integral format.
 Two-electron integral symmetry is turned off.
 Nuclear repulsion after empirical dispersion term =      299.0006738865 Hartrees.
 ------------------------------------------------------------------------------
 Polarizable Continuum Model (PCM)
 =================================
 Model                : C-PCM.
 Atomic radii         : UFF (Universal Force Field).
 Polarization charges : Total charges.
 Charge compensation  : None.
 Solution method      : On-the-fly selection.
 Cavity type          : Scaled VdW (van der Waals Surface) (Alpha=1.100).
 Cavity algorithm     : GePol (No added spheres)
                        Default sphere list used, NSphG=   22.
                        Lebedev-Laikov grids with approx.  5.0 points / Ang**2.
                        Smoothing algorithm: Karplus/York (Gamma=1.0000).
                        Polarization charges: spherical gaussians, with
                                              point-specific exponents (IZeta= 3).
                        Self-potential: point-specific (ISelfS= 7).
                        Self-field    : sphere-specific E.n sum rule (ISelfD= 2).
 1st derivatives      : Analytical E(r).r(x)/FMM algorithm (CHGder, D1EAlg=3).
                        Cavity 1st derivative terms included.
 Solvent              : Water, Eps=  78.355300 Eps(inf)=   1.777849
 ------------------------------------------------------------------------------
 Do NDO integrals.
 One-electron integrals computed using PRISM.
 NBasis=    52 RedAO= F EigKep=  0.00D+00  NBF=    52
 NBsUse=    52 1.00D-04 EigRej=  0.00D+00 NBFU=    52
 Initial guess from the checkpoint file:  "water_diene_pm6_cpcmtoluene.chk"
 B after Tr=     0.000000    0.000000    0.000000
         Rot=    1.000000   -0.000979   -0.000004   -0.000010 Ang=  -0.11 deg.
 Overlap will be assumed to be unity.
 Keep J ints in memory in canonical form, NReq=6641696.
 Requested convergence on RMS density matrix=1.00D-08 within 128 cycles.
 Requested convergence on MAX density matrix=1.00D-06.
 Requested convergence on             energy=1.00D-06.
 No special actions if energy rises.
 Inv3:  Mode=1 IEnd=     9676848.
 Iteration    1 A*A^-1 deviation from unit magnitude is 5.44D-15 for   1779.
 Iteration    1 A*A^-1 deviation from orthogonality  is 1.84D-15 for    867    381.
 Iteration    1 A^-1*A deviation from unit magnitude is 5.22D-15 for   1779.
 Iteration    1 A^-1*A deviation from orthogonality  is 1.52D-15 for   1446   1374.
 Error on total polarization charges = -0.00011
 SCF Done:  E(RPM6D3) = -0.129242234147     A.U. after   12 cycles
            NFock= 11  Conv=0.30D-08     -V/T= 0.9962
 D1PCM: C-PCM CHGder 1st derivatives, ID1Alg=3 FixD1E=F DoIter=F DoCFld=F I1PDM=0.
 Calling FoFJK, ICntrl=      2127 FMM=F ISym2X=0 I1Cent= 0 IOpClX= 0 NMat=1 NMatS=1 NMatT=0.
 ***** Axes restored to original set *****
 -------------------------------------------------------------------
 Center     Atomic                   Forces (Hartrees/Bohr)
 Number     Number              X              Y              Z
 -------------------------------------------------------------------
      1        6          -0.000088897   -0.000029292    0.000096398
      2        1          -0.000001779   -0.000020424    0.000043779
      3        6           0.000381865   -0.000181403   -0.000104494
      4        1          -0.000077657   -0.000104188   -0.000078671
      5        6           0.000007813   -0.000030424    0.000015541
      6        1          -0.000002587   -0.000004549   -0.000035734
      7        6           0.000033481    0.000018265   -0.000049227
      8        1          -0.000006347    0.000004306   -0.000000466
      9        1          -0.000019382    0.000002539    0.000009097
     10        1           0.000026193    0.000000676   -0.000004380
     11        6           0.000057125    0.000239256    0.000074135
     12        1           0.000138852    0.000047442   -0.000012427
     13        6          -0.000207029    0.000211801    0.000003550
     14        1          -0.000042527   -0.000039319    0.000040878
     15        1          -0.000043890   -0.000041420   -0.000030910
     16        6           0.000232698   -0.000443170    0.000088109
     17        6           0.000004301   -0.000131000   -0.000015248
     18        1          -0.000035986    0.000086858    0.000033381
[...]
 0035751,-0.00065548,-0.00006405,0.00000087,0.00006547,0.00001354,0.000
 10915,0.00007123,-0.00007766,-0.00004689,0.00004939,0.00011078,-0.0000
 2392,-0.08108996,-0.16293504,-0.00121159,0.09558729,0.20858246,-0.0004
 6618,0.00001666,-0.00360047,0.00017235,-0.00010691,0.00007004,0.000353
 50,-0.00231109,0.00701824,0.00035477,-0.00059270,0.00813957,-0.0005845
 2,0.00032078,0.00016008,-0.00011432,-0.00002483,-0.00010103,0.00006713
 ,-0.00018964,0.00020894,0.00002865,-0.00000431,-0.00002221,-0.00000309
 ,0.00001337,0.00000333,-0.00005619,-0.00000752,-0.00000125,-0.00087791
 ,-0.00076680,-0.04057077,-0.00032687,0.00303512,0.02175082,0.00141204,
 0.00136606,0.00059446,-0.00029924,0.00021097,-0.00005065,-0.03448820,0
 .02340939,0.00282706,0.00028198,0.00075621,-0.00011420,-0.00082975,-0.
 00016577,0.00015314,0.00019774,-0.00027627,-0.00018623,0.00065007,0.00
 008557,-0.00001985,-0.00008049,-0.00001824,-0.00009887,-0.00009049,0.0
 0006293,0.00003926,-0.00005639,-0.00011409,0.00002022,-0.23269119,0.03
 622098,0.00761529,-0.03217210,-0.01101858,0.00110789,0.48963290,0.0008
 7898,-0.00227628,-0.00033315,0.00042979,0.00023470,0.00011930,0.031908
 49,-0.01112646,-0.00169148,0.00148330,-0.00013044,0.00002146,-0.001043
 40,-0.00002752,0.00005641,0.00017434,-0.00041578,-0.00027302,0.0009752
 8,0.00017802,-0.00000534,-0.00010619,-0.00001671,-0.00016450,-0.000135
 81,0.00012116,0.00007086,-0.00006927,-0.00016957,0.00003969,0.03485535
 ,-0.06101793,-0.00147037,-0.02040447,-0.00018623,0.00039297,-0.0395944
 4,0.39851231,0.00044688,-0.00013390,0.00919158,-0.00065405,0.00020788,
 -0.00028064,0.00276708,-0.00201383,0.00438439,-0.00019908,0.00007388,-
 0.00334434,0.00075223,-0.00027397,-0.00008757,-0.00000439,-0.00017308,
 0.00018452,0.00009641,0.00038568,-0.00050071,-0.00008924,0.00000199,0.
 ,-0.00000775,0.00000267,0.00000855,0.00009782,-0.00001687,0.00001058,0
 .00796151,-0.00164381,-0.06064694,0.00084861,0.00026229,0.00669905,-0.
 00444504,0.00344102,0.38936457,-0.00012671,0.00025675,0.00139182,-0.00
 014903,0.00000822,-0.00004775,-0.00175147,-0.00018994,-0.00024475,-0.0
 0006022,-0.00010824,-0.00044643,0.00017405,-0.00000960,0.00000407,0.00
 000472,-0.00001403,0.00004234,-0.00003572,0.00005161,-0.00007416,-0.00
 000871,0.00000087,0.00000780,0.00000408,-0.00000591,-0.00000325,0.0000
 1789,0.00000477,-0.00000095,-0.02432714,0.01561075,-0.02133720,-0.0007
 4772,-0.00006183,-0.00000478,-0.05279443,0.02971045,-0.05316403,0.0743
 1305,-0.00010312,-0.00004525,-0.00021185,0.00000765,-0.00005992,-0.000
 02772,0.00040310,0.00039882,-0.00001811,-0.00017654,-0.00021348,0.0002
 1250,0.00017649,0.00002450,-0.00002198,-0.00003570,0.00008430,0.000069
 46,-0.00021357,-0.00003389,-0.00000006,0.00002346,0.00000460,0.0000356
 3,0.00002888,-0.00002537,-0.00001626,0.00001604,0.00003751,-0.00000891
 ,0.01193116,-0.00083039,0.00729993,0.00016269,0.00014647,-0.00007524,0
 .02560205,-0.06362897,0.05928340,-0.03126787,0.09247977,0.00016091,-0.
 00009503,-0.00011453,0.00004043,0.00005045,0.00003486,0.00027547,-0.00
 017365,-0.00020968,0.00013663,0.00018424,0.00003864,-0.00019000,-0.000
 03924,0.00000293,0.00001167,-0.00006885,-0.00006835,0.00020048,0.00002
 352,0.00001533,-0.00001765,-0.00000367,-0.00003376,-0.00002529,0.00002
 407,0.00001431,-0.00001594,-0.00003376,0.00000782,-0.01087215,0.004075
 01,-0.00009388,-0.00022339,-0.00026902,-0.00001032,-0.04888086,0.06570
 487,-0.15251813,0.06207138,-0.08511345,0.17905558,-0.00026802,0.000282
 53,-0.00131782,0.00004776,-0.00005045,0.00003688,-0.00198086,0.0000485
 1,0.00027550,0.00000393,-0.00016840,0.00038503,-0.00000893,0.00006678,
 0.00003035,0.00000457,0.00005078,-0.00001262,-0.00009248,-0.00006658,0
 .00007443,0.00002078,0.00000023,0.00001284,0.00000985,-0.00001044,-0.0
 0000588,-0.00000904,0.00001454,-0.00000416,-0.02074613,0.01621545,0.02
 279076,-0.00068611,0.00004238,0.00015665,-0.04392437,0.02496887,0.0406
 9522,0.00493917,-0.00148353,-0.00540543,0.06336131,-0.00000108,-0.0000
 4291,0.00015224,-0.00001403,-0.00004477,-0.00003355,0.00032036,0.00055
 937,0.00001677,-0.00019199,-0.00017001,-0.00020049,0.00018817,-0.00000
 663,-0.00003274,-0.00003058,0.00007899,0.00006513,-0.00019831,-0.00002
 529,-0.00000951,0.00001991,0.00000413,0.00003395,0.00002648,-0.0000245
 3,-0.00001366,0.00001646,0.00003525,-0.00000676,0.01185572,-0.00184074
 ,-0.00853898,0.00003207,0.00026092,0.00013571,0.02152604,-0.07147105,-
 0.06669142,-0.00071106,0.00635766,0.00447650,-0.02528956,0.10275578,-0
 .00013197,0.00007835,-0.00005195,-0.00001989,-0.00005694,-0.00002310,-
 0.00012211,0.00013528,-0.00020233,-0.00012157,-0.00016505,0.00000651,0
 .00015374,0.00002949,-0.00000645,-0.00000504,0.00006522,0.00005748,-0.
 00018845,-0.00001985,-0.00000306,0.00001796,0.00000299,0.00003086,0.00
 002252,-0.00002336,-0.00001359,0.00001448,0.00003223,-0.00000803,0.012
 16214,-0.00562599,-0.00278925,0.00031611,0.00025650,0.00004800,0.03699
 253,-0.07350887,-0.15419338,0.00253667,-0.00610596,-0.02349533,-0.0487
 7851,0.09252121,0.18007953,0.00122046,0.00005252,0.00018352,0.00013270
 ,0.00034118,0.00015308,-0.00121488,0.00048841,0.00003503,-0.00035002,0
 .00149175,0.00006145,-0.00093174,-0.00032352,-0.00002259,0.00009555,-0
 .00039688,-0.00035101,0.00106326,0.00017505,0.00007507,-0.00008718,-0.
 00002148,-0.00018266,-0.00013446,0.00012905,0.00007726,-0.00007342,-0.
 00019065,0.00004741,0.00374376,0.00430395,-0.00031695,0.00079465,-0.00
 179242,-0.00014203,-0.04047742,-0.04532325,0.00266411,0.00219247,0.000
 28356,0.00352975,0.00158797,-0.00022478,-0.00373630,0.49771626,0.00055
 680,0.00001367,0.00002590,0.00007519,0.00011999,0.00005774,0.00073528,
 0.00040322,-0.00007554,-0.00041525,0.00060189,0.00005874,-0.00022981,-
 0.00014274,-0.00006063,0.00001554,-0.00010781,-0.00010001,0.00033192,0
 .00005458,0.00005292,-0.00001847,-0.00000190,-0.00005608,-0.00004376,0
 .00004213,0.00002235,-0.00002282,-0.00005309,0.00001609,-0.00105894,-0
 .00429939,0.00007629,-0.00055382,-0.00025664,0.00001369,-0.03529070,-0
 .00984061,0.00168134,-0.00219617,-0.00248964,0.00163158,-0.00237606,-0
 .00275114,-0.00135384,0.04670611,0.91787245,-0.00006779,0.00000273,-0.
 00003435,-0.00000591,-0.00001678,-0.00000024,0.00009172,-0.00002896,0.
 00016196,0.00000523,-0.00007609,0.00000054,0.00004729,0.00001479,0.000
 00906,-0.00000367,0.00002079,0.00001818,-0.00005223,-0.00000716,-0.000
 00872,0.00000340,0.00000131,0.00001046,0.00000587,-0.00000715,-0.00000
 124,0.00000448,0.00000992,0.00000048,-0.00014659,-0.00010683,0.0000026
 5,-0.00002681,0.00008906,0.00017150,0.00254246,0.00215458,-0.00916516,
 0.00167407,0.00268576,0.00009497,-0.00167679,-0.00251868,0.00081972,-0
 .01689120,-0.02090442,0.17696924,-0.00028874,0.00002336,-0.00002978,-0
 .00004192,-0.00007508,-0.00003444,-0.00013855,-0.00024296,0.00001322,0
 .00005421,-0.00034304,-0.00001948,0.00017507,0.00007910,0.00001768,-0.
 00001240,0.00007681,0.00007081,-0.00021238,-0.00003387,-0.00001913,0.0
 0001540,0.00000368,0.00003710,0.00002584,-0.00002702,-0.00001589,0.000
 01401,0.00003795,-0.00001006,-0.00053886,0.00006415,0.00004636,-0.0000
 7070,0.00036312,0.00003210,-0.00385174,0.00275474,0.00009546,-0.000173
 31,-0.00005691,-0.00028566,-0.00019429,-0.00000649,0.00029918,-0.11547
 585,0.07792296,-0.00028227,0.42985301,0.00003481,-0.00000302,0.0000099
 2,0.00001005,0.00001538,0.00000573,-0.00009152,0.00002517,0.00000002,-
 0.00001829,0.00008680,-0.00000046,-0.00002622,-0.00001719,0.00000128,0
 .00000004,-0.00000955,-0.00001192,0.00002663,-0.00000074,-0.00000161,-
 0.00000245,-0.00000127,-0.00000551,-0.00000079,0.00000448,0.00000286,-
 0.00000113,-0.00000580,0.00000051,0.00016716,0.00037989,-0.00001799,0.
 00005541,-0.00005289,-0.00000683,-0.00137205,-0.00119465,0.00008478,-0
 .00009143,0.00001761,0.00012726,-0.00015715,0.00001525,-0.00010958,0.0
 7588456,-0.16408609,-0.00155737,-0.03381822,0.45751907,0.00001586,-0.0
 0000164,0.00000598,0.00000061,0.00000270,-0.00000288,0.00000210,0.0000
 1453,-0.00004782,-0.00000113,0.00000993,-0.00001376,-0.00000854,-0.000
 00051,-0.00000332,-0.00000029,-0.00000372,-0.00000453,0.00001041,-0.00
 000172,0.00000442,-0.00000031,-0.00000003,-0.00000287,-0.00000066,0.00
 000185,-0.00000119,-0.00000152,-0.00000223,-0.00000133,0.00001884,-0.0
 0001349,0.00006105,0.00000191,-0.00001773,-0.00001284,0.00023234,-0.00
 009109,-0.00038468,0.00015599,0.00024229,-0.00016905,-0.00025151,-0.00
 018749,-0.00015316,-0.00002458,-0.00192263,-0.07880701,-0.00188784,-0.
 00045237,0.37219191,0.00004296,-0.00001328,0.00000037,0.00000603,0.000
 01057,0.00000581,0.00003221,0.00002859,-0.00000589,0.00001644,0.000039
 35,0.00000420,-0.00003382,-0.00000970,-0.00000172,0.00000264,-0.000014
 26,-0.00001172,0.00003757,0.00000709,0.00000174,-0.00000309,-0.0000007
 5,-0.00000623,-0.00000488,0.00000438,0.00000287,-0.00000257,-0.0000069
 8,0.00000214,-0.00000834,-0.00013423,0.00003913,0.00000376,-0.00005991
 ,-0.00000409,-0.00100306,0.00084059,-0.00061052,-0.00062102,-0.0001326
 5,0.00025852,-0.00044169,-0.00011027,-0.00036691,0.00314731,0.01393639
 ,-0.01407856,-0.03334635,-0.01125223,0.01801315,0.03744751,-0.00002780
 ,0.00000321,-0.00000387,-0.00000464,-0.00000795,-0.00000296,0.00000694
 ,-0.00002324,-0.00000119,0.00000397,-0.00003531,0.00000249,0.00001868,
 0.00000846,0.00000074,-0.00000070,0.00000726,0.00000756,-0.00002134,-0
 .00000184,-0.00000143,0.00000178,0.00000058,0.00000396,0.00000207,-0.0
 0000284,-0.00000163,0.00000146,0.00000385,-0.00000062,-0.00010306,-0.0
 0009520,0.00000330,-0.00002170,0.00003630,0.00000652,0.00053045,0.0008
 3115,0.00010444,0.00015945,0.00002125,0.00008816,0.00001429,0.00004627
 ,0.00004013,0.01084666,-0.02978666,0.02290069,-0.01010752,-0.08324146,
 0.08302300,0.00659953,0.10887622,0.00003301,-0.00000452,0.00000295,0.0
 0000483,0.00000868,0.00000387,0.00000395,0.00002989,0.00000765,-0.0000
 0686,0.00003950,-0.00000038,-0.00002227,-0.00000983,-0.00000066,0.0000
 0170,-0.00000915,-0.00000857,0.00002598,0.00000481,0.00000182,-0.00000
 215,-0.00000058,-0.00000439,-0.00000334,0.00000301,0.00000222,-0.00000
 158,-0.00000451,0.00000142,0.00010684,0.00004778,-0.00001548,0.0000190
 6,-0.00004768,-0.00000568,-0.00061620,-0.00054125,0.00017290,-0.000471
 92,0.00006410,0.00010811,-0.00031273,-0.00000839,-0.00021214,-0.007140
 19,0.01575108,-0.00129620,0.01610714,0.08431027,-0.15483873,-0.0181506
 1,-0.10617897,0.18459257,0.00003126,-0.00000533,0.00000427,0.00000449,
 0.00000923,0.00000406,-0.00001055,0.00002409,0.00000079,-0.00000120,0.
 00004127,0.00000200,-0.00002355,-0.00000854,-0.00000096,0.00000204,-0.
 00001000,-0.00000903,0.00002666,0.00000431,0.00000166,-0.00000212,-0.0
 0000044,-0.00000468,-0.00000327,0.00000342,0.00000203,-0.00000177,-0.0
 0000489,0.00000133,0.00010453,0.00007990,-0.00000915,0.00002398,-0.000
 05146,-0.00000473,-0.00021268,-0.00030090,0.00002195,-0.00007762,-0.00
 000117,0.00009351,-0.00007507,-0.00001385,-0.00009115,-0.03506336,0.01
 668683,0.00168022,-0.20135936,-0.04074022,0.01053548,-0.00735885,-0.00
 756193,0.00736098,0.25230863,0.00001544,0.00000544,0.00000180,0.000001
 53,0.00000489,0.00000195,0.00000090,0.00001116,-0.00000260,-0.00001433
 ,0.00002534,0.00000132,-0.00000583,-0.00000479,-0.00000152,0.00000059,
 -0.00000267,-0.00000315,0.00000967,0.00000050,0.00000170,-0.00000044,0
 .00000030,-0.00000174,-0.00000121,0.00000161,0.00000068,-0.00000069,-0
 .00000134,0.00000052,0.00005418,0.00009553,-0.00000610,0.00001042,-0.0
 0001393,-0.00000211,-0.00033861,-0.00067159,0.00003713,-0.00002087,-0.
 00004475,-0.00000222,-0.00001948,-0.00004598,0.00000531,0.02485536,0.0
 0095836,-0.00130024,-0.04677204,-0.04345000,0.00286113,-0.01174034,-0.
 00308558,0.00563443,0.04348042,0.05131034,-0.00000356,-0.00000044,-0.0
 0000628,0.,-0.00000077,0.00000112,0.00000098,-0.00000183,0.00000299,0.
 00000148,-0.00000271,0.00000311,0.00000213,0.00000024,0.00000062,-0.00
 000047,0.00000140,0.00000171,-0.00000249,-0.00000011,-0.00000199,0.000
 00006,0.00000014,0.00000095,0.00000024,-0.00000043,0.00000046,0.000000
 35,0.00000049,0.00000068,-0.00000746,-0.00000780,-0.00000869,-0.000001
 42,0.00000342,0.00000432,0.00001991,0.00003967,0.00006935,-0.00000335,
 0.00000926,0.00000366,0.00001288,-0.00000623,0.00001650,0.00141516,-0.
 00076293,0.00386849,0.01075450,0.00254607,-0.03192252,0.01633741,0.008
 96167,-0.00333980,-0.01350682,-0.00299428,0.03077674,0.00003969,-0.000
 01161,0.00000887,0.00000504,0.00000964,0.00000413,0.00003318,0.0000253
 2,0.00000597,0.00001472,0.00003487,-0.00000032,-0.00003211,-0.00000923
 ,-0.00000134,0.00000373,-0.00001432,-0.00001225,0.00003528,0.00000800,
 0.00000357,-0.00000284,-0.00000090,-0.00000633,-0.00000488,0.00000400,
 0.00000234,-0.00000236,-0.00000648,0.00000145,-0.00001976,-0.00013961,
 -0.00003572,0.00000119,-0.00005395,-0.00000581,-0.00090679,0.00091082,
 0.00070727,-0.00038050,-0.00008030,0.00039600,-0.00055029,-0.00013173,
 -0.00057553,0.00537814,0.01294244,0.01279100,-0.03860617,-0.02203951,-
 0.02936227,0.00427714,0.00070436,0.00090065,-0.00982944,-0.01320451,-0
 .01486346,0.04322877,-0.00002943,0.00000372,-0.00000395,-0.00000485,-0
 .00000878,-0.00000416,0.00000453,-0.00002411,0.00000101,0.00000393,-0.
 00003821,-0.00000478,0.00001915,0.00000869,0.00000031,-0.00000051,0.00
 000769,0.00000774,-0.00002254,-0.00000179,-0.00000032,0.00000196,0.000
 00059,0.00000391,0.00000213,-0.00000309,-0.00000194,0.00000146,0.00000
 412,-0.00000087,-0.00010743,-0.00009589,0.00001237,-0.00002269,0.00003
 890,0.00000324,0.00057088,0.00083152,-0.00020038,0.00002613,0.00004527
 ,-0.00004869,0.00027626,0.00009948,0.00017742,0.00872739,-0.03197035,-
 0.02231093,-0.02068821,-0.09331209,-0.08473512,0.00111140,0.00646108,0
 .00415441,-0.00887559,-0.00386801,-0.00795539,0.01987080,0.12154313,-0
 .00003705,0.00000595,-0.00000527,-0.00000493,-0.00000957,-0.00000405,-
 0.00000927,-0.00003200,0.00000759,0.00000410,-0.00004070,-0.00000419,0
 .00002380,0.00000865,0.00000211,-0.00000069,0.00001031,0.00000917,-0.0
 0002859,-0.00000314,-0.00000177,0.00000228,0.00000066,0.00000492,0.000
 00312,-0.00000370,-0.00000183,0.00000216,0.00000525,-0.00000091,-0.000
 09575,-0.00002412,0.00000209,-0.00001752,0.00005189,0.00000346,0.00069
 646,0.00040070,0.00002070,0.00035359,-0.00001365,-0.00028679,0.0002268
 0,0.00014612,0.00015730,0.00595495,-0.01536728,-0.00109853,-0.02756763
 ,-0.08596031,-0.14002311,-0.00415716,-0.00607974,-0.02451134,-0.006097
 62,-0.00413697,-0.00005510,0.03262603,0.10798942,0.16627691,-0.0010037
 8,-0.00048713,-0.00033304,-0.00001441,-0.00031979,-0.00013591,-0.00148
 744,0.00002955,0.00012982,-0.00110625,0.00075260,0.00031435,0.00088254
 ,0.00028174,-0.00001371,-0.00007996,0.00038115,0.00033703,-0.00102369,
 -0.00016738,-0.00007353,0.00008661,0.00002224,0.00017334,0.00013213,-0
 .00011992,-0.00007200,0.00007453,0.00018345,-0.00004506,-0.04067229,-0
 .03603617,0.00304415,-0.00371549,0.00260587,0.00023449,-0.04425939,-0.
 03545565,0.00190171,0.00010229,-0.00531993,-0.00030736,-0.00063522,-0.
 00744456,0.00062195,-0.23435009,0.05211331,0.00842419,-0.04469401,0.01
 897113,0.00235628,-0.00144892,-0.00187664,0.00202946,0.00090016,0.0039
 3610,-0.00013119,-0.00177139,-0.00188742,-0.00173397,0.44909438,-0.000
 23913,0.00000408,-0.00002790,-0.00002744,-0.00010163,-0.00003961,0.000
 24276,0.00107549,0.00001409,0.00007971,-0.00122522,-0.00003267,0.00032
 733,0.00005298,-0.00001845,-0.00005071,0.00013239,0.00011021,-0.000337
 99,-0.00005309,-0.00001623,0.00003210,0.00000347,0.00005766,0.00004745
 ,-0.00004257,-0.00002347,0.00002587,0.00005837,-0.00001495,-0.02141023
 ,0.00176546,0.00118148,0.00114039,0.00067316,0.00006967,-0.02181187,-0
 .19122061,0.00573071,-0.01117806,-0.03303018,0.01047653,-0.01247742,-0
 .03471210,-0.00739127,0.01706663,-0.04673024,-0.00038873,0.02197868,-0
 .00021615,-0.00075029,-0.00044913,-0.00019584,-0.00015272,0.00086331,-
 0.00182441,0.00001961,-0.00047955,-0.00013253,0.00020276,0.10889992,0.
 36067762,0.00010960,0.00003919,-0.00008201,0.00000735,0.00002484,0.000
 01060,0.00007796,0.00009505,0.00071883,0.00016192,-0.00004773,-0.00050
 284,-0.00007656,-0.00002009,-0.00001877,0.00000239,-0.00002257,-0.0000
 2347,0.00007957,-0.00000158,0.00001315,-0.00000499,-0.00000147,-0.0000
 1312,-0.00000878,0.00000995,0.00000468,-0.00000926,-0.00001409,0.00000
 290,0.00294247,0.00194537,0.00348580,0.00012670,-0.00014667,0.00009054
 ,0.00109307,0.00638583,-0.03434958,0.00790261,0.02247522,-0.00241714,-
 0.00729997,-0.01998609,0.00012335,0.00960414,-0.00213266,-0.03400822,0
 .00230405,-0.00056352,0.01385322,0.00122217,-0.00100218,-0.00021596,-0
 .00003910,-0.00011049,0.00059373,-0.00103244,0.00117208,0.00002977,-0.
 02343130,-0.01436467,0.04394340,-0.00035294,-0.00003227,-0.00006505,-0
 .00003623,-0.00010609,-0.00004711,0.00049092,-0.00026458,-0.00002611,0
 .00007303,-0.00045817,-0.00001679,0.00028773,0.00010134,0.00000331,-0.
 00002879,0.00012448,0.00011172,-0.00033065,-0.00005316,-0.00002156,0.0
 0002726,0.00000716,0.00005706,0.00004104,-0.00003980,-0.00002431,0.000
 02280,0.00006028,-0.00001497,-0.00241369,-0.00401721,0.00021155,-0.000
 64496,0.00072429,0.00008309,-0.00403721,0.01254377,0.00011752,-0.00049
 436,0.00023593,-0.00095114,-0.00036292,0.00038283,0.00100036,-0.088913
 98,-0.17981860,0.00596200,0.00886743,0.01446211,0.00019568,-0.00074092
 ,0.00083577,0.00013403,0.00061730,-0.00024615,-0.00002488,-0.00091030,
 0.00102279,-0.00014288,-0.07500972,-0.08224331,0.00626843,0.16384869,-
 0.00047171,-0.00004348,-0.00006306,-0.00004696,-0.00012041,-0.00005557
 ,0.00030750,-0.00041452,-0.00001440,0.00019357,-0.00051419,-0.00003090
 ,0.00030944,0.00012388,0.00002573,-0.00002889,0.00013753,0.00012276,-0
 .00038321,-0.00006410,-0.00003942,0.00002813,0.00000580,0.00006505,0.0
 0005016,-0.00004581,-0.00002646,0.00002716,0.00006612,-0.00001795,-0.0
 0217602,-0.00279344,0.00019184,-0.00050466,0.00074560,0.00008029,-0.00
 034198,0.01268602,-0.00015031,0.00002622,0.00078405,-0.00101456,0.0001
 1881,0.00092197,0.00101664,-0.14307941,-0.62755188,0.02134374,0.008866
 71,-0.07247284,0.00202476,0.00134596,0.00018024,-0.00309059,-0.0036184
 1,0.00059974,0.00015094,0.00166161,0.00041061,0.00284961,-0.09906329,-
 0.05495753,0.00626643,0.23677930,0.74231818,0.00002612,0.00000121,0.00
 000762,0.00000496,0.00000858,0.00000638,-0.00003962,0.00001963,-0.0000
 3829,-0.00000147,0.00003738,0.00002368,-0.00001996,-0.00000761,-0.0000
 0574,-0.00000008,-0.00001049,-0.00000616,0.00002409,0.00000341,-0.0000
 0040,-0.00000204,-0.00000146,-0.00000371,-0.00000212,0.00000317,0.0000
 0201,-0.00000212,-0.00000448,0.00000035,0.00017164,0.00027074,-0.00000
 004,0.00004603,-0.00005487,-0.00004371,0.00047839,-0.00074721,0.005365
 88,-0.00034162,-0.00076404,0.00004064,0.00036790,0.00068586,-0.0001872
 2,0.00500473,0.02334647,-0.05770596,0.00037484,0.00159883,0.02027213,0
 .00150597,-0.00187015,-0.00044416,0.00005494,0.00001544,-0.00001004,-0
 .00155189,0.00174471,-0.00052109,0.00671062,0.00535786,0.00876004,-0.0
 1280938,-0.02963313,0.02448707\\0.00000015,0.00000367,0.00000420,0.000
 00101,0.00000172,0.00000307,0.00000701,0.00000068,0.00000038,0.0000002
 9,-0.00000123,0.00000129,-0.00000132,-0.00000012,0.00000020,-0.0000012
 1,0.00000365,-0.00000197,-0.00000083,0.00000419,-0.00000061,0.00000034
 ,0.00000609,0.00000165,0.00000050,0.00000440,0.00000215,0.00000047,0.0
 0000447,0.00000098,-0.00000251,0.00000076,0.00000066,0.00000220,0.0000
 0074,-0.00000280,-0.00000280,-0.00000974,0.00000113,-0.00000206,-0.000
 00180,-0.00000081,-0.00000186,0.00000142,-0.00000402,-0.00002231,-0.00
 001444,0.00000444,0.00001389,-0.00002263,-0.00000304,-0.00000352,0.000
 00170,-0.00000148,-0.00000269,-0.00000181,-0.00000129,-0.00000434,0.00
 000350,-0.00000188,0.00001331,0.00000550,-0.00000360,0.00000630,0.0000
 0928,0.00000135\\\@


 THE WISE MAN HAS THE POWER TO REASON AWAY
 WHAT A FOOL BELIEVES.
                     - DOOBIE BROTHERS
 Job cpu time:       0 days  0 hours  0 minutes 22.7 seconds.
 File lengths (MBytes):  RWF=     64 Int=      0 D2E=      0 Chk=      9 Scr=      1
 Normal termination of Gaussian 09 at Wed Aug 12 16:40:19 2020.
