 Entering Gaussian System, Link 0=g09
 Input=water_dienophile_pm6_cpcmtoluene_1_1.com
 Output=water_dienophile_pm6_cpcmtoluene_1_1.log
 Initial command:
 /apps/applications/gaussian/G09.D01/2/default/g09/l1.exe "/local/697371.1.40core-192G.q/Gau-225326.inp" -scrdir="/local/697371.1.40core-192G.q/"
 Entering Link 1 = /apps/applications/gaussian/G09.D01/2/default/g09/l1.exe PID=    225327.
  
 Copyright (c) 1988,1990,1992,1993,1995,1998,2003,2009,2013,
            Gaussian, Inc.  All Rights Reserved.
  
 This is part of the Gaussian(R) 09 program.  It is based on
 the Gaussian(R) 03 system (copyright 2003, Gaussian, Inc.),
 the Gaussian(R) 98 system (copyright 1998, Gaussian, Inc.),
 the Gaussian(R) 94 system (copyright 1995, Gaussian, Inc.),
 the Gaussian 92(TM) system (copyright 1992, Gaussian, Inc.),
 the Gaussian 90(TM) system (copyright 1990, Gaussian, Inc.),
 the Gaussian 88(TM) system (copyright 1988, Gaussian, Inc.),
 the Gaussian 86(TM) system (copyright 1986, Carnegie Mellon
 University), and the Gaussian 82(TM) system (copyright 1983,
 Carnegie Mellon University). Gaussian is a federally registered
 trademark of Gaussian, Inc.
  
 This software contains proprietary and confidential information,
 including trade secrets, belonging to Gaussian, Inc.
  
 This software is provided under written license and may be
 used, copied, transmitted, or stored only in accord with that
 written license.
  
 The following legend is applicable only to US Government
 contracts under FAR:
  
                    RESTRICTED RIGHTS LEGEND
  
 Use, reproduction and disclosure by the US Government is
 subject to restrictions as set forth in subparagraphs (a)
 and (c) of the Commercial Computer Software - Restricted
 Rights clause in FAR 52.227-19.
  
 Gaussian, Inc.
 340 Quinnipiac St., Bldg. 40, Wallingford CT 06492
  
  
 ---------------------------------------------------------------
 Warning -- This program may not be used in any manner that
 competes with the business of Gaussian, Inc. or will provide
 assistance to any competitor of Gaussian, Inc.  The licensee
 of this program is prohibited from giving any competitor of
 Gaussian, Inc. access to this program.  By using this program,
 the user acknowledges that Gaussian, Inc. is engaged in the
 business of creating and licensing software in the field of
 computational chemistry and represents and warrants to the
 licensee that it is not a competitor of Gaussian, Inc. and that
 it will not use this program in any manner prohibited above.
 ---------------------------------------------------------------
  

 Cite this work as:
 Gaussian 09, Revision D.01,
 M. J. Frisch, G. W. Trucks, H. B. Schlegel, G. E. Scuseria, 
 M. A. Robb, J. R. Cheeseman, G. Scalmani, V. Barone, B. Mennucci, 
 G. A. Petersson, H. Nakatsuji, M. Caricato, X. Li, H. P. Hratchian, 
 A. F. Izmaylov, J. Bloino, G. Zheng, J. L. Sonnenberg, M. Hada, 
 M. Ehara, K. Toyota, R. Fukuda, J. Hasegawa, M. Ishida, T. Nakajima, 
 Y. Honda, O. Kitao, H. Nakai, T. Vreven, J. A. Montgomery, Jr., 
 J. E. Peralta, F. Ogliaro, M. Bearpark, J. J. Heyd, E. Brothers, 
 K. N. Kudin, V. N. Staroverov, T. Keith, R. Kobayashi, J. Normand, 
 K. Raghavachari, A. Rendell, J. C. Burant, S. S. Iyengar, J. Tomasi, 
 M. Cossi, N. Rega, J. M. Millam, M. Klene, J. E. Knox, J. B. Cross, 
 V. Bakken, C. Adamo, J. Jaramillo, R. Gomperts, R. E. Stratmann, 
 O. Yazyev, A. J. Austin, R. Cammi, C. Pomelli, J. W. Ochterski, 
 R. L. Martin, K. Morokuma, V. G. Zakrzewski, G. A. Voth, 
 P. Salvador, J. J. Dannenberg, S. Dapprich, A. D. Daniels, 
 O. Farkas, J. B. Foresman, J. V. Ortiz, J. Cioslowski, 
 and D. J. Fox, Gaussian, Inc., Wallingford CT, 2013.
 
 ******************************************
 Gaussian 09:  ES64L-G09RevD.01 24-Apr-2013
                12-Aug-2020 
 ******************************************
 %nprocshared=4
 Will use up to    4 processors via shared memory.
 %chk=water_dienophile_pm6_cpcmtoluene_1_1.chk
 ----------------------------------------------------------------------
 # opt freq pm6 scrf=(cpcm,solvent=water) geom=connectivity empiricaldi
 spersion=gd3
 ----------------------------------------------------------------------
 1/14=-1,18=20,19=15,26=1,38=1,57=2/1,3;
 2/9=110,12=2,17=6,18=5,40=1/2;
 3/5=2,16=1,25=1,41=3900000,70=2101,71=1,72=1,124=31/1,2,3;
 4/35=1/1;
 5/5=2,35=1,38=5,53=1/2;
 6/7=2,8=2,9=2,10=2,28=1/1;
 7//1,2,3,16;
 1/14=-1,18=20,19=15,26=1/3(2);
 2/9=110/2;
 99//99;
 2/9=110/2;
 3/5=2,16=1,25=1,41=3900000,70=2105,71=1,72=1,124=31,135=20/1,2,3;
 4/5=5,16=3,35=1/1;
 5/5=2,35=1,38=5,53=1/2;
 7//1,2,3,16;
 1/14=-1,18=20,19=15,26=1/3(-5);
 2/9=110/2;
 6/7=2,8=2,9=2,10=2,19=2,28=1/1;
 99/9=1/99;
 -------------------
 Title Card Required
 -------------------
 Symbolic Z-matrix:
 Charge =  0 Multiplicity = 1
 C                    -1.17958  -0.21745  -0.0014 
 C                    -0.6672   -1.64464   0.00246 
 C                     0.67053  -1.64352   0.00244 
 C                     1.18033  -0.21556  -0.00159 
 H                    -1.35902  -2.47694   0.00416 
 H                     1.36381  -2.4746    0.00413 
 C                    -0.00298   2.07346   0.00569 
 H                     0.72612   2.46688  -0.72518 
 H                    -1.00247   2.46072  -0.26153 
 H                     0.26472   2.45857   1.00631 
 N                    -0.00027   0.60023  -0.00785 
 O                     2.31034   0.20537  -0.00151 
 O                    -2.31047   0.20088  -0.00085 
 

 GradGradGradGradGradGradGradGradGradGradGradGradGradGradGradGradGradGrad
 Berny optimization.
 Initialization pass.
                           ----------------------------
                           !    Initial Parameters    !
                           ! (Angstroms and Degrees)  !
 --------------------------                            --------------------------
 ! Name  Definition              Value          Derivative Info.                !
 --------------------------------------------------------------------------------
 ! R1    R(1,2)                  1.5164         estimate D2E/DX2                !
 ! R2    R(1,11)                 1.4351         estimate D2E/DX2                !
 ! R3    R(1,13)                 1.2058         estimate D2E/DX2                !
 ! R4    R(2,3)                  1.3377         estimate D2E/DX2                !
 ! R5    R(2,5)                  1.0823         estimate D2E/DX2                !
 ! R6    R(3,4)                  1.5162         estimate D2E/DX2                !
 ! R7    R(3,6)                  1.0823         estimate D2E/DX2                !
 ! R8    R(4,11)                 1.435          estimate D2E/DX2                !
 ! R9    R(4,12)                 1.2059         estimate D2E/DX2                !
 ! R10   R(7,8)                  1.1048         estimate D2E/DX2                !
 ! R11   R(7,9)                  1.1047         estimate D2E/DX2                !
 ! R12   R(7,10)                 1.1051         estimate D2E/DX2                !
 ! R13   R(7,11)                 1.4733         estimate D2E/DX2                !
 ! A1    A(2,1,11)             104.987          estimate D2E/DX2                !
 ! A2    A(2,1,13)             130.0486         estimate D2E/DX2                !
 ! A3    A(11,1,13)            124.9644         estimate D2E/DX2                !
 ! A4    A(1,2,3)              109.7007         estimate D2E/DX2                !
 ! A5    A(1,2,5)              120.5175         estimate D2E/DX2                !
 ! A6    A(3,2,5)              129.7818         estimate D2E/DX2                !
 ! A7    A(2,3,4)              109.6954         estimate D2E/DX2                !
 ! A8    A(2,3,6)              129.7861         estimate D2E/DX2                !
 ! A9    A(4,3,6)              120.5186         estimate D2E/DX2                !
 ! A10   A(3,4,11)             104.9972         estimate D2E/DX2                !
 ! A11   A(3,4,12)             130.0775         estimate D2E/DX2                !
 ! A12   A(11,4,12)            124.9252         estimate D2E/DX2                !
 ! A13   A(8,7,9)              108.1943         estimate D2E/DX2                !
 ! A14   A(8,7,10)             108.3631         estimate D2E/DX2                !
 ! A15   A(8,7,11)             110.4142         estimate D2E/DX2                !
 ! A16   A(9,7,10)             108.4226         estimate D2E/DX2                !
 ! A17   A(9,7,11)             110.4866         estimate D2E/DX2                !
 ! A18   A(10,7,11)            110.8765         estimate D2E/DX2                !
 ! A19   A(1,11,4)             110.619          estimate D2E/DX2                !
 ! A20   A(1,11,7)             124.625          estimate D2E/DX2                !
 ! A21   A(4,11,7)             124.7446         estimate D2E/DX2                !
 ! D1    D(11,1,2,3)             0.1741         estimate D2E/DX2                !
 ! D2    D(11,1,2,5)          -179.7904         estimate D2E/DX2                !
 ! D3    D(13,1,2,3)          -179.8968         estimate D2E/DX2                !
 ! D4    D(13,1,2,5)             0.1387         estimate D2E/DX2                !
 ! D5    D(2,1,11,4)            -0.282          estimate D2E/DX2                !
 ! D6    D(2,1,11,7)          -179.1001         estimate D2E/DX2                !
 ! D7    D(13,1,11,4)          179.7842         estimate D2E/DX2                !
 ! D8    D(13,1,11,7)            0.9661         estimate D2E/DX2                !
 ! D9    D(1,2,3,4)             -0.0056         estimate D2E/DX2                !
 ! D10   D(1,2,3,6)           -179.9619         estimate D2E/DX2                !
 ! D11   D(5,2,3,4)            179.9546         estimate D2E/DX2                !
 ! D12   D(5,2,3,6)             -0.0017         estimate D2E/DX2                !
 ! D13   D(2,3,4,11)            -0.165          estimate D2E/DX2                !
 ! D14   D(2,3,4,12)           179.9204         estimate D2E/DX2                !
 ! D15   D(6,3,4,11)           179.7961         estimate D2E/DX2                !
 ! D16   D(6,3,4,12)            -0.1186         estimate D2E/DX2                !
 ! D17   D(3,4,11,1)             0.2789         estimate D2E/DX2                !
 ! D18   D(3,4,11,7)           179.0953         estimate D2E/DX2                !
 ! D19   D(12,4,11,1)         -179.8008         estimate D2E/DX2                !
 ! D20   D(12,4,11,7)           -0.9843         estimate D2E/DX2                !
 ! D21   D(8,7,11,1)          -135.4962         estimate D2E/DX2                !
 ! D22   D(8,7,11,4)            45.85           estimate D2E/DX2                !
 ! D23   D(9,7,11,1)           -15.8454         estimate D2E/DX2                !
 ! D24   D(9,7,11,4)           165.5008         estimate D2E/DX2                !
 ! D25   D(10,7,11,1)          104.3903         estimate D2E/DX2                !
 ! D26   D(10,7,11,4)          -74.2635         estimate D2E/DX2                !
 --------------------------------------------------------------------------------
 Trust Radius=3.00D-01 FncErr=1.00D-07 GrdErr=1.00D-07
 Number of steps in this run=     70 maximum allowed number of steps=    100.
 GradGradGradGradGradGradGradGradGradGradGradGradGradGradGradGradGradGrad

                          Input orientation:                          
 ---------------------------------------------------------------------
 Center     Atomic      Atomic             Coordinates (Angstroms)
 Number     Number       Type             X           Y           Z
 ---------------------------------------------------------------------
      1          6           0       -1.179583   -0.217450   -0.001401
      2          6           0       -0.667201   -1.644639    0.002463
      3          6           0        0.670532   -1.643515    0.002437
      4          6           0        1.180334   -0.215555   -0.001587
      5          1           0       -1.359016   -2.476938    0.004156
      6          1           0        1.363807   -2.474598    0.004128
      7          6           0       -0.002978    2.073456    0.005686
      8          1           0        0.726123    2.466882   -0.725175
      9          1           0       -1.002469    2.460721   -0.261528
     10          1           0        0.264718    2.458575    1.006305
     11          7           0       -0.000267    0.600226   -0.007852
     12          8           0        2.310339    0.205373   -0.001508
     13          8           0       -2.310466    0.200875   -0.000854
 ---------------------------------------------------------------------
                    Distance matrix (angstroms):
                    1          2          3          4          5
     1  C    0.000000
     2  C    1.516383   0.000000
     3  C    2.335937   1.337733   0.000000
     4  C    2.359918   2.335740   1.516240   0.000000
     5  H    2.266608   1.082281   2.194006   3.400321   0.000000
     6  H    3.400526   2.194044   1.082281   2.266489   2.722824
     7  C    2.575403   3.776961   3.777499   2.576791   4.748150
     8  H    3.370638   4.401751   4.174670   2.815201   5.414894
     9  H    2.696597   4.127479   4.439974   3.463330   4.957640
    10  H    3.203527   4.325799   4.242591   3.000861   5.291512
    11  N    1.435069   2.341864   2.341890   1.435046   3.363819
    12  O    3.515442   3.505468   2.471309   1.205857   4.545216
    13  O    1.205775   2.471083   3.505444   3.515551   2.841824
                    6          7          8          9         10
     6  H    0.000000
     7  C    4.748989   0.000000
     8  H    5.035548   1.104776   0.000000
     9  H    5.479709   1.104699   1.789703   0.000000
    10  H    5.152528   1.105087   1.791923   1.792532   0.000000
    11  N    3.363835   1.473295   2.127580   2.128427   2.133587
    12  O    2.842217   2.973419   2.854445   4.016081   3.205802
    13  O    4.545158   2.971717   3.857499   2.624064   3.569755
                   11         12         13
    11  N    0.000000
    12  O    2.344109   0.000000
    13  O    2.344472   4.620807   0.000000
 Stoichiometry    C5H5NO2
 Framework group  C1[X(C5H5NO2)]
 Deg. of freedom    33
 Full point group                 C1      NOp   1
 Largest Abelian subgroup         C1      NOp   1
 Largest concise Abelian subgroup C1      NOp   1
                         Standard orientation:                         
 ---------------------------------------------------------------------
 Center     Atomic      Atomic             Coordinates (Angstroms)
 Number     Number       Type             X           Y           Z
 ---------------------------------------------------------------------
      1          6           0       -1.179481   -0.217712   -0.001394
      2          6           0       -0.666782   -1.644787    0.002470
      3          6           0        0.670951   -1.643366    0.002444
      4          6           0        1.180435   -0.215292   -0.001580
      5          1           0       -1.358412   -2.477240    0.004163
      6          1           0        1.364411   -2.474294    0.004135
      7          6           0       -0.003386    2.073455    0.005693
      8          1           0        0.725627    2.467043   -0.725169
      9          1           0       -1.002963    2.460498   -0.261522
     10          1           0        0.264225    2.458634    1.006312
     11          7           0       -0.000347    0.600226   -0.007845
     12          8           0        2.310347    0.205887   -0.001501
     13          8           0       -2.310457    0.200361   -0.000847
 ---------------------------------------------------------------------
 Rotational constants (GHZ):      3.2353969      2.2776642      1.3482317
 Standard basis: VSTO-6G (5D, 7F)
 There are    37 symmetry adapted cartesian basis functions of A   symmetry.
 There are    37 symmetry adapted basis functions of A   symmetry.
    37 basis functions,   222 primitive gaussians,    37 cartesian basis functions
    21 alpha electrons       21 beta electrons
       nuclear repulsion energy       212.5996929563 Hartrees.
 Integral buffers will be    131072 words long.
 Regular integral format.
 Two-electron integral symmetry is turned off.
 Nuclear repulsion after empirical dispersion term =      212.5970748025 Hartrees.
 ------------------------------------------------------------------------------
 Polarizable Continuum Model (PCM)
 =================================
 Model                : C-PCM.
 Atomic radii         : UFF (Universal Force Field).
 Polarization charges : Total charges.
 Charge compensation  : None.
 Solution method      : On-the-fly selection.
 Cavity type          : Scaled VdW (van der Waals Surface) (Alpha=1.100).
 Cavity algorithm     : GePol (No added spheres)
                        Default sphere list used, NSphG=   13.
                        Lebedev-Laikov grids with approx.  5.0 points / Ang**2.
                        Smoothing algorithm: Karplus/York (Gamma=1.0000).
                        Polarization charges: spherical gaussians, with
                                              point-specific exponents (IZeta= 3).
                        Self-potential: point-specific (ISelfS= 7).
                        Self-field    : sphere-specific E.n sum rule (ISelfD= 2).
 1st derivatives      : Analytical E(r).r(x)/FMM algorithm (CHGder, D1EAlg=3).
                        Cavity 1st derivative terms included.
 Solvent              : Water, Eps=  78.355300 Eps(inf)=   1.777849
 ------------------------------------------------------------------------------
 Spheres list:
 ISph  on   Nord     Re0    Alpha      Xe            Ye            Ze
    1   C      1    1.9255  1.100     -1.179481     -0.217712     -0.001394
    2   C      2    1.9255  1.100     -0.666782     -1.644787      0.002470
    3   C      3    1.9255  1.100      0.670951     -1.643366      0.002444
    4   C      4    1.9255  1.100      1.180435     -0.215292     -0.001580
    5   H      5    1.4430  1.100     -1.358412     -2.477240      0.004163
    6   H      6    1.4430  1.100      1.364411     -2.474294      0.004135
    7   C      7    1.9255  1.100     -0.003386      2.073455      0.005693
    8   H      8    1.4430  1.100      0.725627      2.467043     -0.725169
    9   H      9    1.4430  1.100     -1.002963      2.460498     -0.261522
   10   H     10    1.4430  1.100      0.264225      2.458634      1.006312
   11   N     11    1.8300  1.100     -0.000347      0.600226     -0.007845
   12   O     12    1.7500  1.100      2.310347      0.205887     -0.001501
   13   O     13    1.7500  1.100     -2.310457      0.200361     -0.000847
 ------------------------------------------------------------------------------
 Do NDO integrals.
 One-electron integrals computed using PRISM.
 NBasis=    37 RedAO= F EigKep=  0.00D+00  NBF=    37
 NBsUse=    37 1.00D-04 EigRej=  0.00D+00 NBFU=    37
 Simple Huckel Guess.
 Overlap will be assumed to be unity.
 Keep J ints in memory in canonical form, NReq=4876017.
 Requested convergence on RMS density matrix=1.00D-08 within 128 cycles.
 Requested convergence on MAX density matrix=1.00D-06.
 Requested convergence on             energy=1.00D-06.
 No special actions if energy rises.
 Inv3:  Mode=1 IEnd=     5031075.
 Iteration    1 A*A^-1 deviation from unit magnitude is 5.77D-15 for   1293.
 Iteration    1 A*A^-1 deviation from orthogonality  is 1.97D-15 for    854     55.
 Iteration    1 A^-1*A deviation from unit magnitude is 6.00D-15 for   1293.
 Iteration    1 A^-1*A deviation from orthogonality  is 1.69D-15 for   1236   1151.
 Error on total polarization charges = -0.00042
 SCF Done:  E(RPM6D3) = -0.937873949927E-01 A.U. after   14 cycles
            NFock= 13  Conv=0.63D-08     -V/T= 0.9962

 **********************************************************************

            Population analysis using the SCF density.

 **********************************************************************

 Orbital symmetries:
       Occupied  (A) (A) (A) (A) (A) (A) (A) (A) (A) (A) (A) (A)
                 (A) (A) (A) (A) (A) (A) (A) (A) (A)
       Virtual   (A) (A) (A) (A) (A) (A) (A) (A) (A) (A) (A) (A)
                 (A) (A) (A) (A)
 The electronic state is 1-A.
 Alpha  occ. eigenvalues --   -1.24230  -1.20557  -1.17536  -1.06524  -0.91633
 Alpha  occ. eigenvalues --   -0.88709  -0.78322  -0.74881  -0.64725  -0.63031
 Alpha  occ. eigenvalues --   -0.61232  -0.58580  -0.56660  -0.56068  -0.53759
 Alpha  occ. eigenvalues --   -0.53513  -0.51040  -0.44404  -0.43721  -0.40677
 Alpha  occ. eigenvalues --   -0.39060
 Alpha virt. eigenvalues --   -0.05817   0.01582   0.02628   0.03052   0.07800
 Alpha virt. eigenvalues --    0.08038   0.11883   0.12323   0.14360   0.16763
 Alpha virt. eigenvalues --    0.16906   0.18924   0.18991   0.19043   0.19326
 Alpha virt. eigenvalues --    0.21334
          Condensed to atoms (all electrons):
               1          2          3          4          5          6
     1  C    3.382358   0.000000   0.000000   0.000000   0.000000   0.000000
     2  C    0.000000   4.208690   0.000000   0.000000   0.000000   0.000000
     3  C    0.000000   0.000000   4.209080   0.000000   0.000000   0.000000
     4  C    0.000000   0.000000   0.000000   3.381302   0.000000   0.000000
     5  H    0.000000   0.000000   0.000000   0.000000   0.792093   0.000000
     6  H    0.000000   0.000000   0.000000   0.000000   0.000000   0.792025
     7  C    0.000000   0.000000   0.000000   0.000000   0.000000   0.000000
     8  H    0.000000   0.000000   0.000000   0.000000   0.000000   0.000000
     9  H    0.000000   0.000000   0.000000   0.000000   0.000000   0.000000
    10  H    0.000000   0.000000   0.000000   0.000000   0.000000   0.000000
    11  N    0.000000   0.000000   0.000000   0.000000   0.000000   0.000000
    12  O    0.000000   0.000000   0.000000   0.000000   0.000000   0.000000
    13  O    0.000000   0.000000   0.000000   0.000000   0.000000   0.000000
               7          8          9         10         11         12
     1  C    0.000000   0.000000   0.000000   0.000000   0.000000   0.000000
     2  C    0.000000   0.000000   0.000000   0.000000   0.000000   0.000000
     3  C    0.000000   0.000000   0.000000   0.000000   0.000000   0.000000
     4  C    0.000000   0.000000   0.000000   0.000000   0.000000   0.000000
     5  H    0.000000   0.000000   0.000000   0.000000   0.000000   0.000000
     6  H    0.000000   0.000000   0.000000   0.000000   0.000000   0.000000
     7  C    4.254368   0.000000   0.000000   0.000000   0.000000   0.000000
     8  H    0.000000   0.834229   0.000000   0.000000   0.000000   0.000000
     9  H    0.000000   0.000000   0.829325   0.000000   0.000000   0.000000
    10  H    0.000000   0.000000   0.000000   0.838124   0.000000   0.000000
    11  N    0.000000   0.000000   0.000000   0.000000   5.485197   0.000000
    12  O    0.000000   0.000000   0.000000   0.000000   0.000000   6.496472
    13  O    0.000000   0.000000   0.000000   0.000000   0.000000   0.000000
              13
     1  C    0.000000
     2  C    0.000000
     3  C    0.000000
     4  C    0.000000
     5  H    0.000000
     6  H    0.000000
     7  C    0.000000
     8  H    0.000000
     9  H    0.000000
    10  H    0.000000
    11  N    0.000000
    12  O    0.000000
    13  O    6.496737
 Mulliken charges:
               1
     1  C    0.617642
     2  C   -0.208690
     3  C   -0.209080
     4  C    0.618698
     5  H    0.207907
     6  H    0.207975
     7  C   -0.254368
     8  H    0.165771
     9  H    0.170675
    10  H    0.161876
    11  N   -0.485197
    12  O   -0.496472
    13  O   -0.496737
 Sum of Mulliken charges =   0.00000
 Mulliken charges with hydrogens summed into heavy atoms:
               1
     1  C    0.617642
     2  C   -0.000782
     3  C   -0.001105
     4  C    0.618698
     7  C    0.243955
    11  N   -0.485197
    12  O   -0.496472
    13  O   -0.496737
 Charge=              0.0000 electrons
 Dipole moment (field-independent basis, Debye):
    X=             -0.0234    Y=             -1.5963    Z=              0.0069  Tot=              1.5965
 N-N= 2.125970748025D+02 E-N=-3.711227387137D+02  KE=-2.449376152874D+01
 D1PCM: C-PCM CHGder 1st derivatives, ID1Alg=3 FixD1E=F DoIter=F DoCFld=F I1PDM=0.
 Calling FoFJK, ICntrl=      2127 FMM=F ISym2X=0 I1Cent= 0 IOpClX= 0 NMat=1 NMatS=1 NMatT=0.
 ***** Axes restored to original set *****
 -------------------------------------------------------------------
 Center     Atomic                   Forces (Hartrees/Bohr)
 Number     Number              X              Y              Z
 -------------------------------------------------------------------
      1        6          -0.000235053   -0.000273220    0.000159492
      2        6          -0.000028435   -0.000051503   -0.000074318
      3        6          -0.000028120   -0.000041316   -0.000074504
      4        6           0.000724304    0.000500220    0.000106936
      5        1           0.000055773    0.000030287    0.000012688
      6        1          -0.000057435    0.000029308    0.000011951
      7        6           0.000729452    0.000088231   -0.000172214
      8        1           0.000030218    0.000196929   -0.000093882
      9        1          -0.000089836   -0.000092652    0.000073951
     10        1          -0.000151327   -0.000043008    0.000006185
     11        7          -0.000741908   -0.000124711    0.000133714
     12        8          -0.000447851   -0.000243482   -0.000032124
     13        8           0.000240218    0.000024918   -0.000057874
 -------------------------------------------------------------------
 Cartesian Forces:  Max     0.000741908 RMS     0.000255128

 GradGradGradGradGradGradGradGradGradGradGradGradGradGradGradGradGradGrad
 Berny optimization.
 FormGI is forming the generalized inverse of G from B-inverse, IUseBI=4.
 Internal  Forces:  Max     0.000504988 RMS     0.000133978
 Search for a local minimum.
 Step number   1 out of a maximum of   70
 All quantities printed in internal units (Hartrees-Bohrs-Radians)
 Mixed Optimization -- En-DIIS/RFO-DIIS
 Second derivative matrix not updated -- first step.
 ITU=  0
     Eigenvalues ---    0.00722   0.00803   0.00858   0.00918   0.01109
     Eigenvalues ---    0.01527   0.01659   0.02188   0.07260   0.07324
     Eigenvalues ---    0.16000   0.16000   0.16000   0.16000   0.16000
     Eigenvalues ---    0.22683   0.24788   0.24992   0.25000   0.25000
     Eigenvalues ---    0.29646   0.30526   0.33126   0.33159   0.33168
     Eigenvalues ---    0.35349   0.35720   0.35720   0.38075   0.39445
     Eigenvalues ---    0.55173   1.01934   1.01974
 RFO step:  Lambda=-6.60383247D-06 EMin= 7.22231995D-03
 Linear search not attempted -- first point.
 Iteration  1 RMS(Cart)=  0.00221240 RMS(Int)=  0.00000473
 Iteration  2 RMS(Cart)=  0.00000646 RMS(Int)=  0.00000277
 Iteration  3 RMS(Cart)=  0.00000000 RMS(Int)=  0.00000277
 Variable       Old X    -DE/DX   Delta X   Delta X   Delta X     New X
                                 (Linear)    (Quad)   (Total)
    R1        2.86555  -0.00003   0.00000  -0.00010  -0.00010   2.86545
    R2        2.71189   0.00010   0.00000   0.00026   0.00026   2.71215
    R3        2.27858  -0.00022   0.00000  -0.00021  -0.00021   2.27837
    R4        2.52795  -0.00001   0.00000  -0.00002  -0.00002   2.52793
    R5        2.04521  -0.00006   0.00000  -0.00016  -0.00016   2.04505
    R6        2.86528   0.00009   0.00000   0.00029   0.00029   2.86557
    R7        2.04521  -0.00006   0.00000  -0.00017  -0.00017   2.04505
    R8        2.71184   0.00006   0.00000   0.00015   0.00015   2.71199
    R9        2.27874  -0.00050   0.00000  -0.00050  -0.00050   2.27824
   R10        2.08772   0.00015   0.00000   0.00046   0.00046   2.08818
   R11        2.08758   0.00003   0.00000   0.00009   0.00009   2.08767
   R12        2.08831  -0.00004   0.00000  -0.00013  -0.00013   2.08818
   R13        2.78412   0.00015   0.00000   0.00042   0.00042   2.78454
    A1        1.83237   0.00000   0.00000  -0.00001  -0.00002   1.83235
    A2        2.26978   0.00012   0.00000   0.00049   0.00048   2.27026
    A3        2.18104  -0.00012   0.00000  -0.00049  -0.00050   2.18054
    A4        1.91464  -0.00001   0.00000  -0.00011  -0.00010   1.91453
    A5        2.10343   0.00003   0.00000   0.00020   0.00020   2.10362
    A6        2.26512  -0.00002   0.00000  -0.00009  -0.00009   2.26503
    A7        1.91455   0.00008   0.00000   0.00031   0.00031   1.91486
    A8        2.26519  -0.00007   0.00000  -0.00033  -0.00033   2.26487
    A9        2.10345  -0.00001   0.00000   0.00001   0.00001   2.10346
   A10        1.83255  -0.00009   0.00000  -0.00038  -0.00039   1.83216
   A11        2.27028  -0.00004   0.00000  -0.00014  -0.00015   2.27013
   A12        2.18036   0.00013   0.00000   0.00052   0.00051   2.18087
   A13        1.88835   0.00000   0.00000   0.00022   0.00022   1.88857
   A14        1.89129   0.00001   0.00000   0.00085   0.00085   1.89215
   A15        1.92709   0.00032   0.00000   0.00256   0.00256   1.92965
   A16        1.89233  -0.00002   0.00000  -0.00116  -0.00117   1.89116
   A17        1.92836  -0.00024   0.00000  -0.00191  -0.00191   1.92644
   A18        1.93516  -0.00007   0.00000  -0.00056  -0.00056   1.93460
   A19        1.93067   0.00003   0.00000   0.00017   0.00017   1.93083
   A20        2.17512   0.00042   0.00000   0.00169   0.00169   2.17681
   A21        2.17720  -0.00046   0.00000  -0.00183  -0.00183   2.17537
    D1        0.00304   0.00003   0.00000   0.00273   0.00273   0.00577
    D2       -3.13794   0.00002   0.00000   0.00255   0.00255  -3.13538
    D3       -3.13979  -0.00004   0.00000  -0.00497  -0.00497   3.13842
    D4        0.00242  -0.00004   0.00000  -0.00514  -0.00515  -0.00273
    D5       -0.00492  -0.00005   0.00000  -0.00446  -0.00446  -0.00938
    D6       -3.12589  -0.00005   0.00000  -0.00602  -0.00603  -3.13191
    D7        3.13783   0.00002   0.00000   0.00273   0.00273   3.14056
    D8        0.01686   0.00001   0.00000   0.00117   0.00116   0.01802
    D9       -0.00010   0.00000   0.00000  -0.00005  -0.00006  -0.00015
   D10       -3.14093  -0.00001   0.00000  -0.00024  -0.00024  -3.14117
   D11        3.14080   0.00000   0.00000   0.00014   0.00014   3.14094
   D12       -0.00003   0.00000   0.00000  -0.00004  -0.00005  -0.00008
   D13       -0.00288  -0.00003   0.00000  -0.00264  -0.00264  -0.00552
   D14        3.14020   0.00003   0.00000   0.00366   0.00365  -3.13933
   D15        3.13803  -0.00002   0.00000  -0.00247  -0.00247   3.13556
   D16       -0.00207   0.00003   0.00000   0.00382   0.00382   0.00175
   D17        0.00487   0.00004   0.00000   0.00442   0.00442   0.00929
   D18        3.12580   0.00007   0.00000   0.00605   0.00604   3.13185
   D19       -3.13812  -0.00001   0.00000  -0.00145  -0.00145  -3.13957
   D20       -0.01718   0.00001   0.00000   0.00017   0.00017  -0.01701
   D21       -2.36485   0.00005   0.00000   0.00118   0.00118  -2.36367
   D22        0.80023   0.00003   0.00000  -0.00064  -0.00063   0.79960
   D23       -0.27655   0.00010   0.00000   0.00188   0.00187  -0.27468
   D24        2.88853   0.00008   0.00000   0.00006   0.00006   2.88859
   D25        1.82195  -0.00013   0.00000  -0.00121  -0.00121   1.82075
   D26       -1.29614  -0.00014   0.00000  -0.00303  -0.00303  -1.29917
         Item               Value     Threshold  Converged?
 Maximum Force            0.000505     0.000450     NO 
 RMS     Force            0.000134     0.000300     YES
 Maximum Displacement     0.007884     0.001800     NO 
 RMS     Displacement     0.002213     0.001200     NO 
 Predicted change in Energy=-3.301135D-06
 GradGradGradGradGradGradGradGradGradGradGradGradGradGradGradGradGradGrad

                          Input orientation:                          
 ---------------------------------------------------------------------
 Center     Atomic      Atomic             Coordinates (Angstroms)
 Number     Number       Type             X           Y           Z
 ---------------------------------------------------------------------
      1          6           0       -1.180188   -0.218000    0.002771
      2          6           0       -0.667369   -1.644984    0.002027
      3          6           0        0.670351   -1.643295    0.001794
      4          6           0        1.180046   -0.215127    0.002140
      5          1           0       -1.358702   -2.477572    0.001352
      6          1           0        1.363650   -2.474244    0.000940
      7          6           0       -0.001722    2.073601    0.004473
      8          1           0        0.727015    2.466777   -0.727250
      9          1           0       -1.001758    2.459528   -0.262834
     10          1           0        0.264642    2.460471    1.004695
     11          7           0       -0.001017    0.600117   -0.005055
     12          8           0        2.309819    0.205667   -0.000018
     13          8           0       -2.310893    0.200474    0.000235
 ---------------------------------------------------------------------
                    Distance matrix (angstroms):
                    1          2          3          4          5
     1  C    0.000000
     2  C    1.516333   0.000000
     3  C    2.335800   1.337722   0.000000
     4  C    2.360235   2.336115   1.516394   0.000000
     5  H    2.266613   1.082194   2.193872   3.400573   0.000000
     6  H    3.400258   2.193790   1.082193   2.266566   2.722355
     7  C    2.576862   3.777693   3.777169   2.575821   4.749166
     8  H    3.373185   4.402582   4.174614   2.816000   5.415502
     9  H    2.696579   4.126619   4.438370   3.461828   4.957031
    10  H    3.203996   4.327672   4.243973   3.000317   5.293979
    11  N    1.435208   2.341913   2.341726   1.435125   3.363855
    12  O    3.515629   3.505504   2.471137   1.205595   4.545087
    13  O    1.205662   2.471212   3.505325   3.515591   2.842288
                    6          7          8          9         10
     6  H    0.000000
     7  C    4.748384   0.000000
     8  H    5.034804   1.105018   0.000000
     9  H    5.477850   1.104747   1.790081   0.000000
    10  H    5.154295   1.105017   1.792613   1.791759   0.000000
    11  N    3.363636   1.473515   2.129792   2.127285   2.133328
    12  O    2.842034   2.971939   2.854252   4.014412   3.205673
    13  O    4.544930   2.973364   3.859306   2.624188   3.570701
                   11         12         13
    11  N    0.000000
    12  O    2.344265   0.000000
    13  O    2.344200   4.620715   0.000000
 Stoichiometry    C5H5NO2
 Framework group  C1[X(C5H5NO2)]
 Deg. of freedom    33
 Full point group                 C1      NOp   1
 Largest Abelian subgroup         C1      NOp   1
 Largest concise Abelian subgroup C1      NOp   1
                         Standard orientation:                         
 ---------------------------------------------------------------------
 Center     Atomic      Atomic             Coordinates (Angstroms)
 Number     Number       Type             X           Y           Z
 ---------------------------------------------------------------------
      1          6           0       -1.180363   -0.215684    0.001626
      2          6           0       -0.670305   -1.643657    0.001190
      3          6           0        0.667416   -1.644555    0.001079
      4          6           0        1.179871   -0.217376    0.001210
      5          1           0       -1.363247   -2.474907    0.000604
      6          1           0        1.359107   -2.476844    0.000440
      7          6           0        0.002532    2.073634    0.003016
      8          1           0        0.732094    2.465265   -0.728713
      9          1           0       -0.996732    2.461445   -0.264453
     10          1           0        0.269553    2.460171    1.003191
     11          7           0        0.000389    0.600150   -0.006243
     12          8           0        2.310457    0.201232   -0.000922
     13          8           0       -2.310257    0.204975   -0.001090
 ---------------------------------------------------------------------
 Rotational constants (GHZ):      3.2351065      2.2776624      1.3481782
 Standard basis: VSTO-6G (5D, 7F)
 There are    37 symmetry adapted cartesian basis functions of A   symmetry.
 There are    37 symmetry adapted basis functions of A   symmetry.
    37 basis functions,   222 primitive gaussians,    37 cartesian basis functions
    21 alpha electrons       21 beta electrons
       nuclear repulsion energy       212.5976647788 Hartrees.
 Integral buffers will be    131072 words long.
 Regular integral format.
 Two-electron integral symmetry is turned off.
 Nuclear repulsion after empirical dispersion term =      212.5950466954 Hartrees.
 ------------------------------------------------------------------------------
 Polarizable Continuum Model (PCM)
 =================================
 Model                : C-PCM.
 Atomic radii         : UFF (Universal Force Field).
 Polarization charges : Total charges.
 Charge compensation  : None.
 Solution method      : On-the-fly selection.
 Cavity type          : Scaled VdW (van der Waals Surface) (Alpha=1.100).
 Cavity algorithm     : GePol (No added spheres)
                        Default sphere list used, NSphG=   13.
                        Lebedev-Laikov grids with approx.  5.0 points / Ang**2.
                        Smoothing algorithm: Karplus/York (Gamma=1.0000).
                        Polarization charges: spherical gaussians, with
                                              point-specific exponents (IZeta= 3).
                        Self-potential: point-specific (ISelfS= 7).
                        Self-field    : sphere-specific E.n sum rule (ISelfD= 2).
 1st derivatives      : Analytical E(r).r(x)/FMM algorithm (CHGder, D1EAlg=3).
                        Cavity 1st derivative terms included.
 Solvent              : Water, Eps=  78.355300 Eps(inf)=   1.777849
 ------------------------------------------------------------------------------
 Spheres list:
 ISph  on   Nord     Re0    Alpha      Xe            Ye            Ze
    1   C      1    1.9255  1.100     -1.180363     -0.215684      0.001626
    2   C      2    1.9255  1.100     -0.670305     -1.643657      0.001190
    3   C      3    1.9255  1.100      0.667416     -1.644555      0.001079
    4   C      4    1.9255  1.100      1.179871     -0.217376      0.001210
    5   H      5    1.4430  1.100     -1.363247     -2.474907      0.000604
    6   H      6    1.4430  1.100      1.359107     -2.476844      0.000440
    7   C      7    1.9255  1.100      0.002532      2.073634      0.003016
    8   H      8    1.4430  1.100      0.732094      2.465265     -0.728713
    9   H      9    1.4430  1.100     -0.996732      2.461445     -0.264453
   10   H     10    1.4430  1.100      0.269553      2.460171      1.003191
   11   N     11    1.8300  1.100      0.000389      0.600150     -0.006243
   12   O     12    1.7500  1.100      2.310457      0.201232     -0.000922
   13   O     13    1.7500  1.100     -2.310257      0.204975     -0.001090
 ------------------------------------------------------------------------------
 Do NDO integrals.
 One-electron integrals computed using PRISM.
 NBasis=    37 RedAO= F EigKep=  0.00D+00  NBF=    37
 NBsUse=    37 1.00D-04 EigRej=  0.00D+00 NBFU=    37
 Initial guess from the checkpoint file:  "water_dienophile_pm6_cpcmtoluene_1_1.chk"
 B after Tr=     0.000000    0.000000    0.000000
         Rot=    0.999999    0.000084    0.000059    0.001063 Ang=   0.12 deg.
 Overlap will be assumed to be unity.
 Keep J ints in memory in canonical form, NReq=4876017.
 Requested convergence on RMS density matrix=1.00D-08 within 128 cycles.
 Requested convergence on MAX density matrix=1.00D-06.
 Requested convergence on             energy=1.00D-06.
 No special actions if energy rises.
 Inv3:  Mode=1 IEnd=     5031075.
 Iteration    1 A*A^-1 deviation from unit magnitude is 4.22D-15 for    455.
 Iteration    1 A*A^-1 deviation from orthogonality  is 3.77D-15 for   1281    632.
 Iteration    1 A^-1*A deviation from unit magnitude is 4.22D-15 for    455.
 Iteration    1 A^-1*A deviation from orthogonality  is 1.62D-15 for   1281    632.
 Error on total polarization charges = -0.00041
 SCF Done:  E(RPM6D3) = -0.937879590079E-01 A.U. after   10 cycles
            NFock=  9  Conv=0.94D-08     -V/T= 0.9962
 D1PCM: C-PCM CHGder 1st derivatives, ID1Alg=3 FixD1E=F DoIter=F DoCFld=F I1PDM=0.
 Calling FoFJK, ICntrl=      2127 FMM=F ISym2X=0 I1Cent= 0 IOpClX= 0 NMat=1 NMatS=1 NMatT=0.
 ***** Axes restored to original set *****
 -------------------------------------------------------------------
 Center     Atomic                   Forces (Hartrees/Bohr)
 Number     Number              X              Y              Z
 -------------------------------------------------------------------
      1        6          -0.000052063   -0.000132234   -0.000604769
      2        6           0.000013820    0.000038144    0.000220407
      3        6           0.000010614   -0.000042219    0.000175472
      4        6           0.000201001    0.000199167   -0.000507722
      5        1           0.000016383    0.000009608   -0.000011408
      6        1          -0.000015599    0.000000582   -0.000016215
      7        6           0.000267736   -0.000014353    0.000009021
      8        1          -0.000061621   -0.000096384    0.000039225
      9        1          -0.000073964    0.000045147   -0.000004702
     10        1          -0.000033191    0.000012175    0.000002855
     11        7          -0.000246538    0.000019499    0.000301629
     12        8          -0.000101006   -0.000079532    0.000179924
     13        8           0.000074427    0.000040398    0.000216282
 -------------------------------------------------------------------
 Cartesian Forces:  Max     0.000604769 RMS     0.000172320

 GradGradGradGradGradGradGradGradGradGradGradGradGradGradGradGradGradGrad
 Berny optimization.
 Using GEDIIS/GDIIS optimizer.
 FormGI is forming the generalized inverse of G from B-inverse, IUseBI=4.
 Internal  Forces:  Max     0.000203288 RMS     0.000072593
 Search for a local minimum.
 Step number   2 out of a maximum of   70
 All quantities printed in internal units (Hartrees-Bohrs-Radians)
 Mixed Optimization -- En-DIIS/RFO-DIIS
 Swapping is turned off.
 Update second derivatives using D2CorX and points    1    2
 DE= -5.64D-07 DEPred=-3.30D-06 R= 1.71D-01
 Trust test= 1.71D-01 RLast= 1.63D-02 DXMaxT set to 3.00D-01
 ITU=  0  0
     Eigenvalues ---    0.00721   0.00850   0.00856   0.01010   0.01524
     Eigenvalues ---    0.01652   0.02185   0.02624   0.06378   0.07322
     Eigenvalues ---    0.15046   0.16000   0.16000   0.16000   0.16096
     Eigenvalues ---    0.20243   0.22788   0.24796   0.24999   0.25008
     Eigenvalues ---    0.29591   0.30521   0.33092   0.33134   0.33496
     Eigenvalues ---    0.35431   0.35683   0.35721   0.38009   0.39462
     Eigenvalues ---    0.55173   0.99107   1.01968
 En-DIIS/RFO-DIIS IScMMF=        0 using points:     2    1
 RFO step:  Lambda=-1.32834320D-06.
 DidBck=T Rises=F RFO-DIIS coefs:    0.55475    0.44525
 Iteration  1 RMS(Cart)=  0.00163333 RMS(Int)=  0.00000378
 Iteration  2 RMS(Cart)=  0.00000460 RMS(Int)=  0.00000235
 Iteration  3 RMS(Cart)=  0.00000000 RMS(Int)=  0.00000235
 Variable       Old X    -DE/DX   Delta X   Delta X   Delta X     New X
                                 (Linear)    (Quad)   (Total)
    R1        2.86545  -0.00003   0.00004  -0.00016  -0.00012   2.86533
    R2        2.71215  -0.00001  -0.00012   0.00029   0.00017   2.71232
    R3        2.27837  -0.00006   0.00009  -0.00028  -0.00018   2.27819
    R4        2.52793   0.00000   0.00001  -0.00002  -0.00002   2.52791
    R5        2.04505  -0.00002   0.00007  -0.00022  -0.00015   2.04490
    R6        2.86557   0.00003  -0.00013   0.00040   0.00027   2.86585
    R7        2.04505  -0.00001   0.00007  -0.00021  -0.00014   2.04491
    R8        2.71199   0.00003  -0.00007   0.00021   0.00015   2.71214
    R9        2.27824  -0.00012   0.00022  -0.00065  -0.00043   2.27782
   R10        2.08818  -0.00010  -0.00020   0.00036   0.00016   2.08834
   R11        2.08767   0.00008  -0.00004   0.00024   0.00020   2.08787
   R12        2.08818   0.00000   0.00006  -0.00015  -0.00010   2.08808
   R13        2.78454  -0.00005  -0.00019   0.00040   0.00022   2.78476
    A1        1.83235  -0.00001   0.00001  -0.00003  -0.00003   1.83232
    A2        2.27026   0.00008  -0.00022   0.00077   0.00055   2.27081
    A3        2.18054  -0.00007   0.00022  -0.00070  -0.00049   2.18006
    A4        1.91453   0.00002   0.00005  -0.00007  -0.00003   1.91451
    A5        2.10362   0.00000  -0.00009   0.00022   0.00014   2.10376
    A6        2.26503  -0.00002   0.00004  -0.00015  -0.00011   2.26492
    A7        1.91486   0.00000  -0.00014   0.00036   0.00023   1.91508
    A8        2.26487  -0.00001   0.00014  -0.00043  -0.00028   2.26459
    A9        2.10346   0.00001  -0.00001   0.00006   0.00005   2.10352
   A10        1.83216  -0.00004   0.00017  -0.00050  -0.00033   1.83182
   A11        2.27013  -0.00003   0.00007  -0.00022  -0.00016   2.26997
   A12        2.18087   0.00006  -0.00023   0.00076   0.00052   2.18139
   A13        1.88857   0.00002  -0.00010   0.00031   0.00021   1.88878
   A14        1.89215   0.00004  -0.00038   0.00116   0.00078   1.89293
   A15        1.92965  -0.00010  -0.00114   0.00265   0.00150   1.93116
   A16        1.89116  -0.00003   0.00052  -0.00146  -0.00094   1.89022
   A17        1.92644   0.00003   0.00085  -0.00213  -0.00128   1.92516
   A18        1.93460   0.00003   0.00025  -0.00053  -0.00028   1.93432
   A19        1.93083   0.00003  -0.00008   0.00028   0.00020   1.93104
   A20        2.17681   0.00017  -0.00075   0.00237   0.00161   2.17842
   A21        2.17537  -0.00020   0.00081  -0.00259  -0.00177   2.17360
    D1        0.00577  -0.00010  -0.00121  -0.00219  -0.00341   0.00236
    D2       -3.13538  -0.00009  -0.00114  -0.00218  -0.00331  -3.13869
    D3        3.13842   0.00012   0.00221   0.00252   0.00473  -3.14003
    D4       -0.00273   0.00013   0.00229   0.00253   0.00483   0.00210
    D5       -0.00938   0.00014   0.00198   0.00321   0.00519  -0.00418
    D6       -3.13191   0.00012   0.00268   0.00005   0.00273  -3.12918
    D7        3.14056  -0.00006  -0.00122  -0.00120  -0.00241   3.13815
    D8        0.01802  -0.00008  -0.00052  -0.00436  -0.00487   0.01315
    D9       -0.00015   0.00001   0.00002   0.00039   0.00042   0.00027
   D10       -3.14117   0.00001   0.00011  -0.00010   0.00001  -3.14116
   D11        3.14094   0.00001  -0.00006   0.00037   0.00031   3.14125
   D12       -0.00008   0.00000   0.00002  -0.00012  -0.00010  -0.00017
   D13       -0.00552   0.00008   0.00117   0.00156   0.00273  -0.00279
   D14       -3.13933  -0.00011  -0.00163  -0.00338  -0.00501   3.13885
   D15        3.13556   0.00008   0.00110   0.00199   0.00309   3.13865
   D16        0.00175  -0.00011  -0.00170  -0.00295  -0.00464  -0.00290
   D17        0.00929  -0.00014  -0.00197  -0.00299  -0.00496   0.00433
   D18        3.13185  -0.00011  -0.00269   0.00023  -0.00246   3.12939
   D19       -3.13957   0.00004   0.00065   0.00161   0.00226  -3.13730
   D20       -0.01701   0.00006  -0.00007   0.00484   0.00477  -0.01225
   D21       -2.36367   0.00002  -0.00053   0.00211   0.00158  -2.36209
   D22        0.79960  -0.00001   0.00028  -0.00153  -0.00125   0.79835
   D23       -0.27468   0.00001  -0.00083   0.00282   0.00198  -0.27270
   D24        2.88859  -0.00002  -0.00003  -0.00082  -0.00084   2.88775
   D25        1.82075   0.00001   0.00054  -0.00075  -0.00021   1.82053
   D26       -1.29917  -0.00002   0.00135  -0.00439  -0.00304  -1.30221
         Item               Value     Threshold  Converged?
 Maximum Force            0.000203     0.000450     YES
 RMS     Force            0.000073     0.000300     YES
 Maximum Displacement     0.006330     0.001800     NO 
 RMS     Displacement     0.001633     0.001200     NO 
 Predicted change in Energy=-3.568673D-06
 GradGradGradGradGradGradGradGradGradGradGradGradGradGradGradGradGradGrad

                          Input orientation:                          
 ---------------------------------------------------------------------
 Center     Atomic      Atomic             Coordinates (Angstroms)
 Number     Number       Type             X           Y           Z
 ---------------------------------------------------------------------
      1          6           0       -1.180820   -0.218534   -0.000579
      2          6           0       -0.667472   -1.645257    0.002216
      3          6           0        0.670240   -1.643015    0.001673
      4          6           0        1.179715   -0.214617   -0.001156
      5          1           0       -1.358320   -2.478146    0.003741
      6          1           0        1.363603   -2.473816    0.002780
      7          6           0       -0.000709    2.073641    0.004691
      8          1           0        0.728042    2.468086   -0.726463
      9          1           0       -1.000987    2.459750   -0.261894
     10          1           0        0.264531    2.459049    1.005719
     11          7           0       -0.001851    0.600051   -0.006043
     12          8           0        2.309266    0.206131    0.000149
     13          8           0       -2.311368    0.200091    0.000436
 ---------------------------------------------------------------------
                    Distance matrix (angstroms):
                    1          2          3          4          5
     1  C    0.000000
     2  C    1.516269   0.000000
     3  C    2.335717   1.337714   0.000000
     4  C    2.360538   2.336416   1.516540   0.000000
     5  H    2.266576   1.082117   2.193742   3.400766   0.000000
     6  H    3.400058   2.193576   1.082120   2.266674   2.721927
     7  C    2.578130   3.778198   3.776733   2.574793   4.749933
     8  H    3.374698   4.404318   4.175484   2.815488   5.417685
     9  H    2.697004   4.126993   4.437921   3.460590   4.957929
    10  H    3.204860   4.326774   4.242598   2.999975   5.292778
    11  N    1.435298   2.341907   2.341604   1.435202   3.363837
    12  O    3.515827   3.505511   2.470981   1.205370   4.544947
    13  O    1.205565   2.471378   3.505285   3.515629   2.842756
                    6          7          8          9         10
     6  H    0.000000
     7  C    4.747706   0.000000
     8  H    5.035685   1.105103   0.000000
     9  H    5.477354   1.104854   1.790373   0.000000
    10  H    5.152378   1.104966   1.793149   1.791195   0.000000
    11  N    3.363509   1.473630   2.131034   2.126550   2.133190
    12  O    2.841900   2.970455   2.853888   4.013134   3.204334
    13  O    4.544799   2.974786   3.861373   2.625257   3.570538
                   11         12         13
    11  N    0.000000
    12  O    2.344456   0.000000
    13  O    2.343903   4.620638   0.000000
 Stoichiometry    C5H5NO2
 Framework group  C1[X(C5H5NO2)]
 Deg. of freedom    33
 Full point group                 C1      NOp   1
 Largest Abelian subgroup         C1      NOp   1
 Largest concise Abelian subgroup C1      NOp   1
                         Standard orientation:                         
 ---------------------------------------------------------------------
 Center     Atomic      Atomic             Coordinates (Angstroms)
 Number     Number       Type             X           Y           Z
 ---------------------------------------------------------------------
      1          6           0       -1.181206   -0.213839   -0.001151
      2          6           0       -0.673501   -1.642579    0.001982
      3          6           0        0.664209   -1.645624    0.001602
      4          6           0        1.179326   -0.219252   -0.001442
      5          1           0       -1.367636   -2.472730    0.003586
      6          1           0        1.354283   -2.479159    0.002954
      7          6           0        0.007955    2.073655    0.003817
      8          1           0        0.738348    2.465074   -0.727325
      9          1           0       -0.990756    2.463663   -0.262964
     10          1           0        0.274596    2.458206    1.004803
     11          7           0        0.000990    0.600078   -0.006631
     12          8           0        2.310532    0.197028   -0.000082
     13          8           0       -2.310090    0.209252   -0.000354
 ---------------------------------------------------------------------
 Rotational constants (GHZ):      3.2350454      2.2776386      1.3481636
 Standard basis: VSTO-6G (5D, 7F)
 There are    37 symmetry adapted cartesian basis functions of A   symmetry.
 There are    37 symmetry adapted basis functions of A   symmetry.
    37 basis functions,   222 primitive gaussians,    37 cartesian basis functions
    21 alpha electrons       21 beta electrons
       nuclear repulsion energy       212.5972602884 Hartrees.
 Integral buffers will be    131072 words long.
 Regular integral format.
 Two-electron integral symmetry is turned off.
 Nuclear repulsion after empirical dispersion term =      212.5946417643 Hartrees.
 ------------------------------------------------------------------------------
 Polarizable Continuum Model (PCM)
 =================================
 Model                : C-PCM.
 Atomic radii         : UFF (Universal Force Field).
 Polarization charges : Total charges.
 Charge compensation  : None.
 Solution method      : On-the-fly selection.
 Cavity type          : Scaled VdW (van der Waals Surface) (Alpha=1.100).
 Cavity algorithm     : GePol (No added spheres)
                        Default sphere list used, NSphG=   13.
                        Lebedev-Laikov grids with approx.  5.0 points / Ang**2.
                        Smoothing algorithm: Karplus/York (Gamma=1.0000).
                        Polarization charges: spherical gaussians, with
                                              point-specific exponents (IZeta= 3).
                        Self-potential: point-specific (ISelfS= 7).
                        Self-field    : sphere-specific E.n sum rule (ISelfD= 2).
 1st derivatives      : Analytical E(r).r(x)/FMM algorithm (CHGder, D1EAlg=3).
                        Cavity 1st derivative terms included.
 Solvent              : Water, Eps=  78.355300 Eps(inf)=   1.777849
 ------------------------------------------------------------------------------
 Spheres list:
 ISph  on   Nord     Re0    Alpha      Xe            Ye            Ze
    1   C      1    1.9255  1.100     -1.181206     -0.213839     -0.001151
    2   C      2    1.9255  1.100     -0.673501     -1.642579      0.001982
    3   C      3    1.9255  1.100      0.664209     -1.645624      0.001602
    4   C      4    1.9255  1.100      1.179326     -0.219252     -0.001442
    5   H      5    1.4430  1.100     -1.367636     -2.472730      0.003586
    6   H      6    1.4430  1.100      1.354283     -2.479159      0.002954
    7   C      7    1.9255  1.100      0.007955      2.073655      0.003817
    8   H      8    1.4430  1.100      0.738348      2.465074     -0.727325
    9   H      9    1.4430  1.100     -0.990756      2.463663     -0.262964
   10   H     10    1.4430  1.100      0.274596      2.458206      1.004803
   11   N     11    1.8300  1.100      0.000990      0.600078     -0.006631
   12   O     12    1.7500  1.100      2.310532      0.197028     -0.000082
   13   O     13    1.7500  1.100     -2.310090      0.209252     -0.000354
 ------------------------------------------------------------------------------
 Do NDO integrals.
 One-electron integrals computed using PRISM.
 NBasis=    37 RedAO= F EigKep=  0.00D+00  NBF=    37
 NBsUse=    37 1.00D-04 EigRej=  0.00D+00 NBFU=    37
 Initial guess from the checkpoint file:  "water_dienophile_pm6_cpcmtoluene_1_1.chk"
 B after Tr=     0.000000    0.000000    0.000000
         Rot=    1.000000   -0.000026    0.000009    0.000978 Ang=  -0.11 deg.
 Overlap will be assumed to be unity.
 Keep J ints in memory in canonical form, NReq=4876017.
 Requested convergence on RMS density matrix=1.00D-08 within 128 cycles.
 Requested convergence on MAX density matrix=1.00D-06.
 Requested convergence on             energy=1.00D-06.
 No special actions if energy rises.
 Inv3:  Mode=1 IEnd=     5031075.
 Iteration    1 A*A^-1 deviation from unit magnitude is 3.89D-15 for   1283.
 Iteration    1 A*A^-1 deviation from orthogonality  is 1.79D-15 for   1285    772.
 Iteration    1 A^-1*A deviation from unit magnitude is 3.89D-15 for   1283.
 Iteration    1 A^-1*A deviation from orthogonality  is 2.01D-15 for   1235   1150.
 Error on total polarization charges = -0.00041
 SCF Done:  E(RPM6D3) = -0.937897382823E-01 A.U. after   10 cycles
            NFock=  9  Conv=0.96D-08     -V/T= 0.9962
 D1PCM: C-PCM CHGder 1st derivatives, ID1Alg=3 FixD1E=F DoIter=F DoCFld=F I1PDM=0.
 Calling FoFJK, ICntrl=      2127 FMM=F ISym2X=0 I1Cent= 0 IOpClX= 0 NMat=1 NMatS=1 NMatT=0.
 ***** Axes restored to original set *****
 -------------------------------------------------------------------
 Center     Atomic                   Forces (Hartrees/Bohr)
 Number     Number              X              Y              Z
 -------------------------------------------------------------------
      1        6           0.000107101    0.000001698    0.000145008
      2        6           0.000041465    0.000098642   -0.000072470
      3        6           0.000038902   -0.000032638   -0.000050457
      4        6          -0.000252782   -0.000083567    0.000179134
      5        1          -0.000018902   -0.000012132    0.000008908
      6        1           0.000019621   -0.000020416    0.000001206
      7        6          -0.000145853   -0.000066191   -0.000049267
      8        1          -0.000102151   -0.000226052    0.000115977
      9        1          -0.000031344    0.000138153   -0.000049838
     10        1           0.000056453    0.000004869    0.000003503
     11        7           0.000175953    0.000089858   -0.000096375
     12        8           0.000187193    0.000066417   -0.000078397
     13        8          -0.000075656    0.000041360   -0.000056931
 -------------------------------------------------------------------
 Cartesian Forces:  Max     0.000252782 RMS     0.000100272

 GradGradGradGradGradGradGradGradGradGradGradGradGradGradGradGradGradGrad
 Berny optimization.
 Using GEDIIS/GDIIS optimizer.
 FormGI is forming the generalized inverse of G from B-inverse, IUseBI=4.
 Internal  Forces:  Max     0.000289322 RMS     0.000074925
 Search for a local minimum.
 Step number   3 out of a maximum of   70
 All quantities printed in internal units (Hartrees-Bohrs-Radians)
 Mixed Optimization -- En-DIIS/RFO-DIIS
 Swapping is turned off.
 Update second derivatives using D2CorX and points    1    2    3
 DE= -1.78D-06 DEPred=-3.57D-06 R= 4.99D-01
 Trust test= 4.99D-01 RLast= 1.69D-02 DXMaxT set to 3.00D-01
 ITU=  0  0  0
     Eigenvalues ---    0.00721   0.00817   0.00862   0.00984   0.01524
     Eigenvalues ---    0.01659   0.02187   0.03571   0.07126   0.07316
     Eigenvalues ---    0.15578   0.16000   0.16000   0.16042   0.17257
     Eigenvalues ---    0.18871   0.22954   0.24798   0.25000   0.25062
     Eigenvalues ---    0.29577   0.30527   0.33080   0.33134   0.34213
     Eigenvalues ---    0.35671   0.35719   0.36583   0.38328   0.39678
     Eigenvalues ---    0.55173   1.00317   1.01968
 En-DIIS/RFO-DIIS IScMMF=        0 using points:     3    2    1
 RFO step:  Lambda=-7.10027834D-07.
 DidBck=T Rises=F RFO-DIIS coefs:    0.59743    0.24351    0.15906
 Iteration  1 RMS(Cart)=  0.00080966 RMS(Int)=  0.00000101
 Iteration  2 RMS(Cart)=  0.00000079 RMS(Int)=  0.00000077
 Variable       Old X    -DE/DX   Delta X   Delta X   Delta X     New X
                                 (Linear)    (Quad)   (Total)
    R1        2.86533  -0.00002   0.00006  -0.00009  -0.00003   2.86530
    R2        2.71232  -0.00009  -0.00011  -0.00007  -0.00018   2.71214
    R3        2.27819   0.00009   0.00011  -0.00003   0.00007   2.27826
    R4        2.52791   0.00001   0.00001   0.00000   0.00001   2.52793
    R5        2.04490   0.00002   0.00008  -0.00003   0.00005   2.04496
    R6        2.86585  -0.00002  -0.00016   0.00009  -0.00006   2.86578
    R7        2.04491   0.00003   0.00008  -0.00002   0.00007   2.04498
    R8        2.71214  -0.00001  -0.00008   0.00006  -0.00003   2.71211
    R9        2.27782   0.00020   0.00025  -0.00008   0.00017   2.27799
   R10        2.08834  -0.00023  -0.00014  -0.00034  -0.00048   2.08787
   R11        2.08787   0.00009  -0.00010   0.00025   0.00016   2.08803
   R12        2.08808   0.00002   0.00006  -0.00001   0.00005   2.08814
   R13        2.78476  -0.00015  -0.00015  -0.00016  -0.00031   2.78445
    A1        1.83232  -0.00001   0.00001  -0.00007  -0.00005   1.83227
    A2        2.27081   0.00002  -0.00030   0.00031   0.00001   2.27082
    A3        2.18006  -0.00001   0.00027  -0.00024   0.00004   2.18009
    A4        1.91451   0.00004   0.00003   0.00010   0.00013   1.91464
    A5        2.10376  -0.00003  -0.00009  -0.00003  -0.00011   2.10365
    A6        2.26492  -0.00001   0.00006  -0.00008  -0.00002   2.26490
    A7        1.91508  -0.00006  -0.00014  -0.00004  -0.00019   1.91490
    A8        2.26459   0.00003   0.00017  -0.00005   0.00011   2.26470
    A9        2.10352   0.00003  -0.00002   0.00010   0.00007   2.10359
   A10        1.83182   0.00002   0.00020  -0.00010   0.00010   1.83192
   A11        2.26997  -0.00002   0.00009  -0.00012  -0.00003   2.26994
   A12        2.18139  -0.00001  -0.00029   0.00021  -0.00008   2.18132
   A13        1.88878   0.00001  -0.00012   0.00008  -0.00004   1.88874
   A14        1.89293   0.00006  -0.00045   0.00025  -0.00020   1.89273
   A15        1.93116  -0.00029  -0.00101  -0.00062  -0.00163   1.92953
   A16        1.89022  -0.00002   0.00057  -0.00013   0.00044   1.89066
   A17        1.92516   0.00024   0.00082   0.00047   0.00129   1.92645
   A18        1.93432   0.00001   0.00020  -0.00004   0.00016   1.93448
   A19        1.93104   0.00001  -0.00011   0.00011   0.00000   1.93104
   A20        2.17842  -0.00005  -0.00092   0.00061  -0.00030   2.17812
   A21        2.17360   0.00004   0.00100  -0.00070   0.00031   2.17391
    D1        0.00236   0.00003   0.00094  -0.00038   0.00056   0.00292
    D2       -3.13869   0.00003   0.00093  -0.00027   0.00066  -3.13804
    D3       -3.14003  -0.00004  -0.00111   0.00005  -0.00106  -3.14109
    D4        0.00210  -0.00004  -0.00113   0.00016  -0.00097   0.00114
    D5       -0.00418  -0.00004  -0.00138   0.00046  -0.00092  -0.00511
    D6       -3.12918  -0.00005  -0.00014  -0.00125  -0.00139  -3.13057
    D7        3.13815   0.00002   0.00053   0.00006   0.00059   3.13874
    D8        0.01315   0.00001   0.00178  -0.00165   0.00013   0.01328
    D9        0.00027   0.00000  -0.00016   0.00016   0.00000   0.00027
   D10       -3.14116   0.00001   0.00003   0.00019   0.00022  -3.14093
   D11        3.14125   0.00000  -0.00015   0.00004  -0.00011   3.14114
   D12       -0.00017   0.00000   0.00005   0.00007   0.00012  -0.00006
   D13       -0.00279  -0.00002  -0.00068   0.00012  -0.00056  -0.00335
   D14        3.13885   0.00005   0.00144   0.00058   0.00201   3.14086
   D15        3.13865  -0.00003  -0.00085   0.00009  -0.00076   3.13789
   D16       -0.00290   0.00004   0.00126   0.00055   0.00181  -0.00108
   D17        0.00433   0.00004   0.00129  -0.00037   0.00092   0.00525
   D18        3.12939   0.00005   0.00003   0.00135   0.00138   3.13076
   D19       -3.13730  -0.00003  -0.00068  -0.00080  -0.00148  -3.13878
   D20       -0.01225  -0.00002  -0.00194   0.00092  -0.00102  -0.01327
   D21       -2.36209  -0.00003  -0.00082   0.00082   0.00000  -2.36210
   D22        0.79835  -0.00004   0.00060  -0.00113  -0.00052   0.79783
   D23       -0.27270  -0.00005  -0.00110   0.00083  -0.00027  -0.27297
   D24        2.88775  -0.00006   0.00033  -0.00112  -0.00079   2.88696
   D25        1.82053   0.00009   0.00028   0.00095   0.00123   1.82176
   D26       -1.30221   0.00008   0.00171  -0.00100   0.00070  -1.30151
         Item               Value     Threshold  Converged?
 Maximum Force            0.000289     0.000450     YES
 RMS     Force            0.000075     0.000300     YES
 Maximum Displacement     0.003901     0.001800     NO 
 RMS     Displacement     0.000810     0.001200     YES
 Predicted change in Energy=-9.344513D-07
 GradGradGradGradGradGradGradGradGradGradGradGradGradGradGradGradGradGrad

                          Input orientation:                          
 ---------------------------------------------------------------------
 Center     Atomic      Atomic             Coordinates (Angstroms)
 Number     Number       Type             X           Y           Z
 ---------------------------------------------------------------------
      1          6           0       -1.180779   -0.218456    0.000334
      2          6           0       -0.667348   -1.645134    0.002070
      3          6           0        0.670371   -1.642984    0.001676
      4          6           0        1.179669   -0.214556    0.000017
      5          1           0       -1.358257   -2.478011    0.002779
      6          1           0        1.363794   -2.473782    0.002024
      7          6           0       -0.001222    2.073519    0.004793
      8          1           0        0.727963    2.466021   -0.726594
      9          1           0       -1.001044    2.460532   -0.262531
     10          1           0        0.264734    2.459733    1.005353
     11          7           0       -0.001895    0.600087   -0.005138
     12          8           0        2.309272    0.206319   -0.000084
     13          8           0       -2.311386    0.200124    0.000570
 ---------------------------------------------------------------------
                    Distance matrix (angstroms):
                    1          2          3          4          5
     1  C    0.000000
     2  C    1.516253   0.000000
     3  C    2.335816   1.337721   0.000000
     4  C    2.360452   2.336243   1.516507   0.000000
     5  H    2.266515   1.082146   2.193765   3.400633   0.000000
     6  H    3.400198   2.193672   1.082155   2.266717   2.722055
     7  C    2.577698   3.777845   3.776697   2.574842   4.749523
     8  H    3.373150   4.402209   4.173442   2.813805   5.415511
     9  H    2.697848   4.127694   4.438725   3.461292   4.958548
    10  H    3.205038   4.327272   4.243134   2.999938   5.293445
    11  N    1.435204   2.341772   2.341657   1.435188   3.363699
    12  O    3.515805   3.505446   2.471016   1.205461   4.544931
    13  O    1.205604   2.471404   3.505413   3.515598   2.842686
                    6          7          8          9         10
     6  H    0.000000
     7  C    4.747759   0.000000
     8  H    5.033569   1.104851   0.000000
     9  H    5.478129   1.104937   1.790209   0.000000
    10  H    5.153073   1.104995   1.792835   1.791569   0.000000
    11  N    3.363603   1.473465   2.129531   2.127394   2.133181
    12  O    2.841983   2.970663   2.852124   4.013545   3.204514
    13  O    4.544966   2.974304   3.860142   2.625959   3.570968
                   11         12         13
    11  N    0.000000
    12  O    2.344477   0.000000
    13  O    2.343875   4.620662   0.000000
 Stoichiometry    C5H5NO2
 Framework group  C1[X(C5H5NO2)]
 Deg. of freedom    33
 Full point group                 C1      NOp   1
 Largest Abelian subgroup         C1      NOp   1
 Largest concise Abelian subgroup C1      NOp   1
                         Standard orientation:                         
 ---------------------------------------------------------------------
 Center     Atomic      Atomic             Coordinates (Angstroms)
 Number     Number       Type             X           Y           Z
 ---------------------------------------------------------------------
      1          6           0       -1.181037   -0.214355   -0.000515
      2          6           0       -0.672586   -1.642814    0.001687
      3          6           0        0.665133   -1.645330    0.001495
      4          6           0        1.179411   -0.218688   -0.000475
      5          1           0       -1.366395   -2.473276    0.002517
      6          1           0        1.355654   -2.478541    0.002172
      7          6           0        0.006507    2.073493    0.003500
      8          1           0        0.737167    2.463251   -0.727882
      9          1           0       -0.991919    2.463919   -0.264079
     10          1           0        0.273658    2.459049    1.003996
     11          7           0        0.000696    0.600070   -0.006030
     12          8           0        2.310475    0.198244   -0.000519
     13          8           0       -2.310176    0.208166   -0.000564
 ---------------------------------------------------------------------
 Rotational constants (GHZ):      3.2353503      2.2776450      1.3482158
 Standard basis: VSTO-6G (5D, 7F)
 There are    37 symmetry adapted cartesian basis functions of A   symmetry.
 There are    37 symmetry adapted basis functions of A   symmetry.
    37 basis functions,   222 primitive gaussians,    37 cartesian basis functions
    21 alpha electrons       21 beta electrons
       nuclear repulsion energy       212.5998704706 Hartrees.
 Integral buffers will be    131072 words long.
 Regular integral format.
 Two-electron integral symmetry is turned off.
 Nuclear repulsion after empirical dispersion term =      212.5972520523 Hartrees.
 ------------------------------------------------------------------------------
 Polarizable Continuum Model (PCM)
 =================================
 Model                : C-PCM.
 Atomic radii         : UFF (Universal Force Field).
 Polarization charges : Total charges.
 Charge compensation  : None.
 Solution method      : On-the-fly selection.
 Cavity type          : Scaled VdW (van der Waals Surface) (Alpha=1.100).
 Cavity algorithm     : GePol (No added spheres)
                        Default sphere list used, NSphG=   13.
                        Lebedev-Laikov grids with approx.  5.0 points / Ang**2.
                        Smoothing algorithm: Karplus/York (Gamma=1.0000).
                        Polarization charges: spherical gaussians, with
                                              point-specific exponents (IZeta= 3).
                        Self-potential: point-specific (ISelfS= 7).
                        Self-field    : sphere-specific E.n sum rule (ISelfD= 2).
 1st derivatives      : Analytical E(r).r(x)/FMM algorithm (CHGder, D1EAlg=3).
                        Cavity 1st derivative terms included.
 Solvent              : Water, Eps=  78.355300 Eps(inf)=   1.777849
 ------------------------------------------------------------------------------
 Spheres list:
 ISph  on   Nord     Re0    Alpha      Xe            Ye            Ze
    1   C      1    1.9255  1.100     -1.181037     -0.214355     -0.000515
    2   C      2    1.9255  1.100     -0.672586     -1.642814      0.001687
    3   C      3    1.9255  1.100      0.665133     -1.645330      0.001495
    4   C      4    1.9255  1.100      1.179411     -0.218688     -0.000475
    5   H      5    1.4430  1.100     -1.366395     -2.473276      0.002517
    6   H      6    1.4430  1.100      1.355654     -2.478541      0.002172
    7   C      7    1.9255  1.100      0.006507      2.073493      0.003500
    8   H      8    1.4430  1.100      0.737167      2.463251     -0.727882
    9   H      9    1.4430  1.100     -0.991919      2.463919     -0.264079
   10   H     10    1.4430  1.100      0.273658      2.459049      1.003996
   11   N     11    1.8300  1.100      0.000696      0.600070     -0.006030
   12   O     12    1.7500  1.100      2.310475      0.198244     -0.000519
   13   O     13    1.7500  1.100     -2.310176      0.208166     -0.000564
 ------------------------------------------------------------------------------
 Do NDO integrals.
 One-electron integrals computed using PRISM.
 NBasis=    37 RedAO= F EigKep=  0.00D+00  NBF=    37
 NBsUse=    37 1.00D-04 EigRej=  0.00D+00 NBFU=    37
 Initial guess from the checkpoint file:  "water_dienophile_pm6_cpcmtoluene_1_1.chk"
 B after Tr=     0.000000    0.000000    0.000000
         Rot=    1.000000    0.000022   -0.000002   -0.000256 Ang=   0.03 deg.
 Overlap will be assumed to be unity.
 Keep J ints in memory in canonical form, NReq=4873259.
 Requested convergence on RMS density matrix=1.00D-08 within 128 cycles.
 Requested convergence on MAX density matrix=1.00D-06.
 Requested convergence on             energy=1.00D-06.
 No special actions if energy rises.
 Inv3:  Mode=1 IEnd=     5023308.
 Iteration    1 A*A^-1 deviation from unit magnitude is 4.33D-15 for   1285.
 Iteration    1 A*A^-1 deviation from orthogonality  is 1.95D-15 for   1280    631.
 Iteration    1 A^-1*A deviation from unit magnitude is 4.33D-15 for   1285.
 Iteration    1 A^-1*A deviation from orthogonality  is 1.89D-15 for   1087    451.
 Error on total polarization charges = -0.00041
 SCF Done:  E(RPM6D3) = -0.937907791224E-01 A.U. after   10 cycles
            NFock=  9  Conv=0.33D-08     -V/T= 0.9962
 D1PCM: C-PCM CHGder 1st derivatives, ID1Alg=3 FixD1E=F DoIter=F DoCFld=F I1PDM=0.
 Calling FoFJK, ICntrl=      2127 FMM=F ISym2X=0 I1Cent= 0 IOpClX= 0 NMat=1 NMatS=1 NMatT=0.
 ***** Axes restored to original set *****
 -------------------------------------------------------------------
 Center     Atomic                   Forces (Hartrees/Bohr)
 Number     Number              X              Y              Z
 -------------------------------------------------------------------
      1        6           0.000037608   -0.000026166    0.000014500
      2        6           0.000015218    0.000036196   -0.000021056
      3        6           0.000014522   -0.000017694    0.000020017
      4        6          -0.000067831   -0.000020053   -0.000048731
      5        1          -0.000007173   -0.000009418    0.000005669
      6        1           0.000004125   -0.000004096    0.000003853
      7        6          -0.000017057    0.000004481   -0.000026641
      8        1          -0.000017800   -0.000027149    0.000010430
      9        1           0.000006404    0.000023311   -0.000003670
     10        1           0.000001866    0.000005991    0.000005230
     11        7           0.000008979   -0.000002486    0.000030314
     12        8           0.000054947    0.000018877    0.000014353
     13        8          -0.000033809    0.000018206   -0.000004268
 -------------------------------------------------------------------
 Cartesian Forces:  Max     0.000067831 RMS     0.000023613

 GradGradGradGradGradGradGradGradGradGradGradGradGradGradGradGradGradGrad
 Berny optimization.
 Using GEDIIS/GDIIS optimizer.
 FormGI is forming the generalized inverse of G from B-inverse, IUseBI=4.
 Internal  Forces:  Max     0.000057804 RMS     0.000013858
 Search for a local minimum.
 Step number   4 out of a maximum of   70
 All quantities printed in internal units (Hartrees-Bohrs-Radians)
 Mixed Optimization -- En-DIIS/RFO-DIIS
 Swapping is turned off.
 Update second derivatives using D2CorX and points    1    2    3    4
 DE= -1.04D-06 DEPred=-9.34D-07 R= 1.11D+00
 TightC=F SS=  1.41D+00  RLast= 5.34D-03 DXNew= 5.0454D-01 1.6019D-02
 Trust test= 1.11D+00 RLast= 5.34D-03 DXMaxT set to 3.00D-01
 ITU=  1  0  0  0
     Eigenvalues ---    0.00720   0.00780   0.00889   0.00978   0.01548
     Eigenvalues ---    0.01665   0.02192   0.03660   0.07185   0.07323
     Eigenvalues ---    0.15732   0.15918   0.16000   0.16021   0.17125
     Eigenvalues ---    0.18004   0.22600   0.24815   0.24999   0.25018
     Eigenvalues ---    0.29573   0.30522   0.33101   0.33135   0.33609
     Eigenvalues ---    0.35683   0.35714   0.36513   0.38233   0.39479
     Eigenvalues ---    0.55173   0.99938   1.01983
 En-DIIS/RFO-DIIS IScMMF=        0 using points:     4    3    2    1
 RFO step:  Lambda=-2.62690725D-08.
 DidBck=F Rises=F RFO-DIIS coefs:    1.11505   -0.09588   -0.03161    0.01244
 Iteration  1 RMS(Cart)=  0.00028244 RMS(Int)=  0.00000015
 Iteration  2 RMS(Cart)=  0.00000012 RMS(Int)=  0.00000012
 Variable       Old X    -DE/DX   Delta X   Delta X   Delta X     New X
                                 (Linear)    (Quad)   (Total)
    R1        2.86530  -0.00001   0.00000  -0.00003  -0.00003   2.86527
    R2        2.71214  -0.00001  -0.00002  -0.00001  -0.00004   2.71211
    R3        2.27826   0.00004   0.00001   0.00003   0.00004   2.27830
    R4        2.52793   0.00000   0.00000   0.00000   0.00001   2.52793
    R5        2.04496   0.00001   0.00001   0.00003   0.00003   2.04499
    R6        2.86578   0.00000  -0.00001   0.00002   0.00001   2.86579
    R7        2.04498   0.00001   0.00001   0.00001   0.00001   2.04499
    R8        2.71211   0.00001   0.00000   0.00002   0.00002   2.71213
    R9        2.27799   0.00006   0.00002   0.00004   0.00005   2.27805
   R10        2.08787  -0.00003  -0.00006  -0.00006  -0.00011   2.08775
   R11        2.08803   0.00000   0.00002   0.00000   0.00002   2.08805
   R12        2.08814   0.00001   0.00001   0.00002   0.00003   2.08817
   R13        2.78445   0.00001  -0.00004   0.00006   0.00002   2.78446
    A1        1.83227   0.00000  -0.00001  -0.00002  -0.00002   1.83224
    A2        2.27082   0.00001   0.00001   0.00006   0.00007   2.27089
    A3        2.18009  -0.00001   0.00000  -0.00005  -0.00005   2.18005
    A4        1.91464   0.00001   0.00002   0.00006   0.00008   1.91471
    A5        2.10365  -0.00001  -0.00001  -0.00003  -0.00004   2.10361
    A6        2.26490  -0.00001   0.00000  -0.00003  -0.00004   2.26486
    A7        1.91490  -0.00002  -0.00002  -0.00006  -0.00008   1.91481
    A8        2.26470   0.00001   0.00001   0.00002   0.00003   2.26473
    A9        2.10359   0.00001   0.00001   0.00004   0.00005   2.10364
   A10        1.83192   0.00001   0.00001   0.00003   0.00004   1.83196
   A11        2.26994  -0.00001   0.00000  -0.00004  -0.00005   2.26990
   A12        2.18132   0.00000  -0.00001   0.00001   0.00001   2.18133
   A13        1.88874  -0.00001   0.00000  -0.00005  -0.00005   1.88869
   A14        1.89273   0.00001  -0.00002   0.00004   0.00002   1.89275
   A15        1.92953  -0.00004  -0.00019  -0.00010  -0.00029   1.92924
   A16        1.89066  -0.00001   0.00005  -0.00008  -0.00003   1.89063
   A17        1.92645   0.00004   0.00015   0.00019   0.00034   1.92679
   A18        1.93448   0.00000   0.00002  -0.00001   0.00001   1.93449
   A19        1.93104   0.00000   0.00000  -0.00001  -0.00001   1.93103
   A20        2.17812   0.00001  -0.00002   0.00012   0.00010   2.17821
   A21        2.17391   0.00000   0.00002  -0.00010  -0.00008   2.17383
    D1        0.00292   0.00001  -0.00003   0.00046   0.00042   0.00334
    D2       -3.13804   0.00000  -0.00002  -0.00006  -0.00008  -3.13811
    D3       -3.14109   0.00000   0.00003  -0.00035  -0.00032  -3.14141
    D4        0.00114  -0.00001   0.00005  -0.00086  -0.00082   0.00032
    D5       -0.00511   0.00000   0.00005   0.00001   0.00006  -0.00505
    D6       -3.13057  -0.00001  -0.00003  -0.00076  -0.00080  -3.13137
    D7        3.13874   0.00001  -0.00001   0.00077   0.00075   3.13949
    D8        0.01328   0.00000  -0.00009  -0.00001  -0.00011   0.01317
    D9        0.00027  -0.00001   0.00001  -0.00072  -0.00072  -0.00045
   D10       -3.14093  -0.00001   0.00003  -0.00038  -0.00036  -3.14129
   D11        3.14114   0.00000  -0.00001  -0.00015  -0.00016   3.14099
[...]
 Rotational      0.275350D+06          5.439885         12.525799
 ***** Axes restored to original set *****
 -------------------------------------------------------------------
 Center     Atomic                   Forces (Hartrees/Bohr)
 Number     Number              X              Y              Z
 -------------------------------------------------------------------
      1        6           0.000037609   -0.000026165    0.000014499
      2        6           0.000015219    0.000036195   -0.000021056
      3        6           0.000014523   -0.000017693    0.000020018
      4        6          -0.000067831   -0.000020055   -0.000048732
      5        1          -0.000007173   -0.000009418    0.000005669
      6        1           0.000004125   -0.000004096    0.000003854
      7        6          -0.000017057    0.000004481   -0.000026642
      8        1          -0.000017800   -0.000027149    0.000010430
      9        1           0.000006404    0.000023311   -0.000003670
     10        1           0.000001866    0.000005991    0.000005230
     11        7           0.000008978   -0.000002486    0.000030314
     12        8           0.000054947    0.000018877    0.000014353
     13        8          -0.000033809    0.000018206   -0.000004268
 -------------------------------------------------------------------
 Cartesian Forces:  Max     0.000067831 RMS     0.000023613
 FormGI is forming the generalized inverse of G from B-inverse, IUseBI=4.

 GradGradGradGradGradGradGradGradGradGradGradGradGradGradGradGradGradGrad
 Berny optimization.
 Internal  Forces:  Max     0.000057804 RMS     0.000013858
 Search for a local minimum.
 Step number   1 out of a maximum of    2
 All quantities printed in internal units (Hartrees-Bohrs-Radians)
 Second derivative matrix not updated -- analytic derivatives used.
 ITU=  0
     Eigenvalues ---    0.00001   0.00347   0.00733   0.00890   0.01799
     Eigenvalues ---    0.02416   0.03629   0.04157   0.04465   0.04513
     Eigenvalues ---    0.08667   0.08862   0.10285   0.10797   0.13080
     Eigenvalues ---    0.14024   0.14142   0.14436   0.16948   0.20030
     Eigenvalues ---    0.24773   0.25566   0.25735   0.25936   0.27421
     Eigenvalues ---    0.28180   0.30748   0.33880   0.40826   0.48012
     Eigenvalues ---    0.69519   0.87566   0.89776
 Angle between quadratic step and forces=  88.34 degrees.
 Linear search not attempted -- first point.
 Iteration  1 RMS(Cart)=  0.00608863 RMS(Int)=  0.00003487
 Iteration  2 RMS(Cart)=  0.00003612 RMS(Int)=  0.00000004
 Iteration  3 RMS(Cart)=  0.00000000 RMS(Int)=  0.00000004
 Variable       Old X    -DE/DX   Delta X   Delta X   Delta X     New X
                                 (Linear)    (Quad)   (Total)
    R1        2.86530  -0.00001   0.00000  -0.00003  -0.00003   2.86527
    R2        2.71214  -0.00001   0.00000  -0.00003  -0.00003   2.71212
    R3        2.27826   0.00004   0.00000   0.00005   0.00005   2.27831
    R4        2.52793   0.00000   0.00000   0.00000   0.00000   2.52793
    R5        2.04496   0.00001   0.00000   0.00006   0.00006   2.04502
    R6        2.86578   0.00000   0.00000  -0.00002  -0.00002   2.86577
    R7        2.04498   0.00001   0.00000   0.00001   0.00001   2.04499
    R8        2.71211   0.00001   0.00000   0.00002   0.00002   2.71213
    R9        2.27799   0.00006   0.00000   0.00008   0.00008   2.27807
   R10        2.08787  -0.00003   0.00000  -0.00008  -0.00008   2.08778
   R11        2.08803   0.00000   0.00000  -0.00004  -0.00004   2.08798
   R12        2.08814   0.00001   0.00000   0.00005   0.00005   2.08819
   R13        2.78445   0.00001   0.00000   0.00002   0.00002   2.78447
    A1        1.83227   0.00000   0.00000  -0.00002  -0.00002   1.83225
    A2        2.27082   0.00001   0.00000  -0.00002  -0.00002   2.27080
    A3        2.18009  -0.00001   0.00000   0.00003   0.00003   2.18013
    A4        1.91464   0.00001   0.00000   0.00009   0.00009   1.91472
    A5        2.10365  -0.00001   0.00000  -0.00004  -0.00004   2.10361
    A6        2.26490  -0.00001   0.00000  -0.00005  -0.00005   2.26485
    A7        1.91490  -0.00002   0.00000  -0.00011  -0.00011   1.91479
    A8        2.26470   0.00001   0.00000   0.00006   0.00006   2.26476
    A9        2.10359   0.00001   0.00000   0.00005   0.00005   2.10364
   A10        1.83192   0.00001   0.00000   0.00008   0.00008   1.83200
   A11        2.26994  -0.00001   0.00000  -0.00006  -0.00006   2.26988
   A12        2.18132   0.00000   0.00000  -0.00002  -0.00002   2.18130
   A13        1.88874  -0.00001   0.00000  -0.00016  -0.00016   1.88858
   A14        1.89273   0.00001   0.00000   0.00001   0.00001   1.89273
   A15        1.92953  -0.00004   0.00000  -0.00028  -0.00028   1.92924
   A16        1.89066  -0.00001   0.00000   0.00002   0.00002   1.89068
   A17        1.92645   0.00004   0.00000   0.00037   0.00037   1.92682
   A18        1.93448   0.00000   0.00000   0.00004   0.00004   1.93453
   A19        1.93104   0.00000   0.00000  -0.00004  -0.00004   1.93100
   A20        2.17812   0.00001   0.00000   0.00001   0.00001   2.17813
   A21        2.17391   0.00000   0.00000   0.00004   0.00004   2.17395
    D1        0.00292   0.00001   0.00000   0.00002   0.00002   0.00294
    D2       -3.13804   0.00000   0.00000  -0.00017  -0.00017  -3.13821
    D3       -3.14109   0.00000   0.00000  -0.00005  -0.00005  -3.14114
    D4        0.00114  -0.00001   0.00000  -0.00025  -0.00025   0.00089
    D5       -0.00511   0.00000   0.00000   0.00019   0.00019  -0.00492
    D6       -3.13057  -0.00001   0.00000  -0.00083  -0.00083  -3.13140
    D7        3.13874   0.00001   0.00000   0.00025   0.00025   3.13899
    D8        0.01328   0.00000   0.00000  -0.00076  -0.00076   0.01252
    D9        0.00027  -0.00001   0.00000  -0.00021  -0.00021   0.00006
   D10       -3.14093  -0.00001   0.00000  -0.00018  -0.00018  -3.14111
   D11        3.14114   0.00000   0.00000   0.00001   0.00001   3.14115
   D12       -0.00006   0.00000   0.00000   0.00004   0.00004  -0.00001
   D13       -0.00335   0.00001   0.00000   0.00032   0.00032  -0.00303
   D14        3.14086   0.00000   0.00000  -0.00010  -0.00010   3.14076
   D15        3.13789   0.00001   0.00000   0.00029   0.00029   3.13818
   D16       -0.00108  -0.00001   0.00000  -0.00013  -0.00013  -0.00121
   D17        0.00525  -0.00001   0.00000  -0.00030  -0.00030   0.00495
   D18        3.13076   0.00000   0.00000   0.00071   0.00071   3.13147
   D19       -3.13878   0.00001   0.00000   0.00009   0.00009  -3.13869
   D20       -0.01327   0.00001   0.00000   0.00110   0.00110  -0.01217
   D21       -2.36210   0.00000   0.00000  -0.01460  -0.01460  -2.37669
   D22        0.79783  -0.00001   0.00000  -0.01575  -0.01575   0.78208
   D23       -0.27297   0.00000   0.00000  -0.01474  -0.01474  -0.28771
   D24        2.88696  -0.00001   0.00000  -0.01589  -0.01589   2.87106
   D25        1.82176   0.00001   0.00000  -0.01445  -0.01445   1.80731
   D26       -1.30151   0.00000   0.00000  -0.01560  -0.01560  -1.31711
         Item               Value     Threshold  Converged?
 Maximum Force            0.000058     0.000450     YES
 RMS     Force            0.000014     0.000300     YES
 Maximum Displacement     0.024597     0.001800     NO 
 RMS     Displacement     0.006089     0.001200     NO 
 Predicted change in Energy=-5.785768D-08
 GradGradGradGradGradGradGradGradGradGradGradGradGradGradGradGradGradGrad

 1\1\GINC-D12S5B3\Freq\RPM6\ZDO\C5H5N1O2\CHMKSH\12-Aug-2020\0\\#N Geom=
 AllCheck Guess=TCheck SCRF=Check GenChk RPM6/ZDO Freq\\Title Card Requ
 ired\\0,1\C,-1.1807789292,-0.2184562037,0.0003336554\C,-0.6673484978,-
 1.6451338273,0.0020704355\C,0.6703711603,-1.6429838462,0.0016762175\C,
 1.179669437,-0.2145563458,0.000017117\H,-1.3582573254,-2.4780106778,0.
 0027792642\H,1.3637938153,-2.4737815473,0.0020235179\C,-0.0012215208,2
 .0735187414,0.0047927793\H,0.7279633705,2.466021311,-0.7265936771\H,-1
 .0010435009,2.4605323306,-0.2625305021\H,0.2647341663,2.4597326426,1.0
 053525176\N,-0.0018950745,0.6000872926,-0.0051377503\O,2.3092717818,0.
 2063185518,-0.0000837249\O,-2.3113857428,0.2001244481,0.0005698901\\Ve
 rsion=ES64L-G09RevD.01\State=1-A\HF=-0.0937908\RMSD=4.419e-10\RMSF=2.3
 61e-05\ZeroPoint=0.0878253\Thermal=0.095453\Dipole=-0.0082395,-0.62821
 7,-0.0002477\DipoleDeriv=4.0367287,0.375823,0.0015918,-0.1661572,1.325
 2058,0.0035296,0.0013933,-0.0007183,0.8064082,-0.6704039,-0.1141639,0.
 0012302,0.3471544,-0.5443479,-0.0004965,-0.0043641,0.0001116,-0.299963
 4,-0.6700664,0.1126684,-0.0009432,-0.3497617,-0.5469077,-0.000207,0.00
 43154,0.0001244,-0.3023011,4.0246631,-0.3594918,-0.0029166,0.1931116,1
 .3261519,0.003066,-0.0012536,-0.0002177,0.8171223,0.3408598,0.1986982,
 -0.0002403,0.2142449,0.346582,0.0001207,-0.0001958,-0.0000383,0.226578
 8,0.3417978,-0.1986996,0.0001473,-0.2132487,0.3452421,0.0002301,0.0000
 934,0.0000639,0.2259033,-0.6391113,0.0065271,0.0006699,0.0345491,0.039
 682,0.0383451,0.0015408,0.0106833,-0.3516709,0.2350609,0.0479563,-0.02
 0433,0.0217578,0.1357457,-0.0650114,-0.026166,-0.0603342,0.22344,0.268
 0617,-0.074075,0.0101715,-0.0381758,0.1521575,-0.0259113,0.0088286,-0.
 0244185,0.2201701,0.2037783,0.0141501,0.0098896,0.0047082,0.1205571,0.
 0795096,0.0150639,0.0708011,0.2346241,-2.9031235,-0.0000499,0.0002156,
 -0.0416435,-1.2381988,-0.0304747,-0.0005672,0.0065454,-0.7420743,-2.27
 99245,-0.0587686,0.0016637,-0.5638233,-0.7319013,-0.0010268,-0.0014875
 ,-0.0014384,-0.5284159,-2.2883103,0.0494239,-0.0010465,0.5572832,-0.72
 99731,-0.0016749,0.0027986,-0.0011681,-0.5298198\Polar=149.1148968,0.4
 017408,62.0900083,-0.0270695,0.0776723,16.1693709\HyperPolar=-29.32982
 3,-454.4130362,0.878168,-6.8198807,-8.3309166,0.0697368,3.0146309,4.35
 90682,20.6080314,5.2119084\PG=C01 [X(C5H5N1O2)]\NImag=0\\0.90932298,-0
 .22149314,0.49676859,-0.00022010,-0.00081018,0.14660667,-0.05402684,0.
 02532424,-0.00007936,0.85399681,0.04506574,-0.16692194,0.00011540,0.06
 901310,0.47646619,0.00005480,0.00009504,-0.07335433,-0.00022161,-0.000
 44773,0.12724689,-0.03504435,0.03236129,-0.00001959,-0.59534142,-0.008
 87650,0.00014603,0.85451331,0.03826490,-0.02892075,0.00002294,0.007038
 44,-0.04820004,-0.00005155,-0.06776885,0.47588339,-0.00018963,0.000008
 08,0.00791807,0.00016644,-0.00004258,-0.05713260,-0.00016238,-0.000379
 80,0.12721128,-0.13707126,-0.02731107,-0.00009593,-0.03483199,-0.03820
 742,0.00021104,-0.05376152,-0.04452160,-0.00006967,0.90913622,0.026437
 09,0.06327297,-0.00010356,-0.03227088,-0.02909211,0.00002400,-0.024989
 86,-0.16686524,0.00007683,0.22130503,0.49650099,0.00008428,-0.00011297
 ,-0.01352341,0.00004542,0.00004272,0.00789375,0.00006606,0.00011791,-0
 .07336759,0.00001620,-0.00090892,0.14736522,0.00754258,0.00051272,0.00
 000366,-0.11002093,-0.09227394,0.00007189,-0.03052688,-0.02194341,0.00
 002656,-0.00471375,-0.00165021,0.00000163,0.13770325,-0.00682959,-0.03
 258764,0.00003698,-0.09248335,-0.14434261,0.00009003,-0.00804108,0.003
 59347,0.00000495,-0.00034205,-0.00492276,0.00000765,0.11005210,0.17598
 104,-0.00001032,0.00003690,0.00714217,0.00006209,0.00009280,-0.0412673
 3,0.00003041,0.00002490,0.00669974,-0.00000806,-0.00000109,0.00933963,
 -0.00009831,-0.00014368,0.02255562,-0.00471745,0.00165146,0.00000327,-
 0.03062228,0.02183767,-0.00000680,-0.11059187,0.09235708,-0.00003546,0
 .00754070,-0.00036958,-0.00000210,-0.00095002,-0.00067001,0.00000070,0
 .13838075,0.00032941,-0.00491595,0.00000878,0.00793093,0.00368176,-0.0
 0000010,0.09259537,-0.14380793,0.00004214,0.00694189,-0.03254210,0.000
 02684,0.00066378,0.00107997,-0.00000233,-0.11016751,0.17531574,0.00001
 467,-0.00000291,0.00934616,-0.00001267,0.00001233,0.00668747,-0.000026
 66,0.00004600,-0.04128223,0.00001007,0.00003274,0.00714613,-0.00000064
 ,-0.00000181,-0.00145909,0.00003757,-0.00008071,0.02257125,0.00732807,
 -0.01777526,0.00013614,-0.00352181,-0.00413280,-0.00009067,-0.00381597
 ,0.00418156,0.00008470,0.00679075,0.01839961,-0.00011241,0.00073604,-0
 .00071441,-0.00001249,0.00079297,0.00074714,0.00001338,0.41394486,-0.0
 1063549,-0.02049584,0.00012968,-0.00043839,0.00073702,-0.00003037,0.00
 039073,0.00070603,-0.00002933,0.01057640,-0.02017351,0.00011620,-0.000
 01352,0.00002192,-0.00000531,0.00000877,0.00001934,-0.00000530,0.00075
 923,0.45385503,0.00044528,0.00045013,-0.00853320,0.00019724,0.00009853
 ,0.00387096,-0.00018376,0.00008999,0.00356558,-0.00049879,0.00040770,-
 0.00774602,-0.00004045,0.00002282,0.00016302,0.00003925,0.00002185,0.0
 0012498,0.00000692,0.00133360,0.37683855,-0.00175449,-0.00037904,0.000
 14256,0.00013405,0.00041137,0.00002718,-0.00008554,0.00028982,0.000047
 23,0.00199452,0.00079071,-0.00022771,-0.00009158,-0.00002310,0.0000023
 4,0.00006282,-0.00003721,0.00000256,-0.11257545,-0.04241702,0.07950648
 ,0.12972492,0.00130615,-0.00263255,0.00255567,-0.00061025,-0.00072759,
 -0.00058557,-0.00032957,0.00047099,-0.00042595,0.00151022,-0.00273306,
 0.00220811,0.00012119,-0.00012242,-0.00002591,0.00008875,0.00008841,-0
 .00000494,-0.03512230,-0.05026054,0.03738886,0.05386290,0.07989083,0.0
 0162920,-0.00017377,0.00023188,-0.00023569,-0.00045369,-0.00006081,0.0
 0013418,-0.00033487,-0.00006573,-0.00148517,0.00093220,0.00049190,0.00
 011588,0.00002643,-0.00000341,-0.00010388,0.00003770,-0.00000368,0.079
 79606,0.04178206,-0.11310541,-0.09799708,-0.05375293,0.13035912,0.0029
 9452,-0.00056900,0.00006907,-0.00016512,-0.00039076,-0.00000573,0.0002
 3913,-0.00060513,-0.00001817,-0.00241058,0.00004239,-0.00010142,0.0000
 9990,0.00004875,-0.00000056,-0.00013951,0.00002735,-0.00000442,-0.1823
 2601,0.05744455,-0.03996325,-0.02211267,0.00214407,0.00163048,0.215030
 66,-0.00190637,-0.00430393,0.00092598,0.00042322,0.00073076,-0.0001517
 2,0.00084820,-0.00090017,-0.00021372,-0.00143755,-0.00318055,0.0009491
 6,-0.00013147,0.00010959,-0.00000081,-0.00015595,-0.00017644,-0.000010
 47,0.04807981,-0.05038633,0.01359853,-0.00308512,0.00435251,-0.0007335
 6,-0.07343500,0.07989536,0.00059753,0.00049546,0.00072493,-0.00005691,
 -0.00011465,-0.00009410,0.00010609,-0.00018051,0.00001519,-0.00054610,
 -0.00015650,0.00027883,0.00003975,0.00001303,-0.00000822,-0.00004648,0
 .00000620,0.00000332,-0.04031588,0.01512781,-0.04337919,0.01358777,-0.
 00213172,0.00414987,0.04927396,-0.01935351,0.04475541,-0.00068391,-0.0
 0074477,-0.00014948,0.00002708,0.00013154,0.00002790,-0.00002654,0.000
 10180,-0.00007091,0.00063949,0.00085881,0.00022848,-0.00003216,-0.0000
 0712,0.00000552,0.00001355,-0.00001458,-0.00000710,-0.04419250,-0.0151
 5508,-0.03953997,0.00413110,0.00190153,0.01377650,-0.00901415,-0.00279
 678,-0.02122453,0.04512071,0.00076484,-0.00196420,-0.00320660,-0.00022
 200,-0.00036473,0.00074219,-0.00012007,0.00006880,0.00064947,0.0003677
 9,-0.00170689,-0.00284643,0.00005396,-0.00003627,0.00002776,0.00002176
 ,0.00004047,0.00001649,-0.01238016,-0.04889864,-0.04965436,0.00065826,
 0.00484693,0.00300971,0.00082504,0.00456675,0.00293208,0.01939771,0.07
 798322,-0.00222266,-0.00020712,0.00024247,0.00022358,0.00053419,-0.000
 10009,-0.00017996,0.00048015,-0.00007416,0.00209977,-0.00061553,0.0003
 5218,-0.00013454,-0.00004349,-0.00000693,0.00012931,-0.00004797,-0.000
 00423,-0.03951691,-0.05592903,-0.18215323,0.00145949,-0.00205899,-0.02
 238201,-0.00916876,-0.00084404,-0.00911121,0.04884462,0.07219023,0.215
 73422,-0.11060737,-0.05946120,0.00046436,0.00617082,-0.02059316,-0.000
 10991,0.00609413,0.02076688,0.00011005,-0.11055400,0.05984163,-0.00043
 757,0.00051872,-0.00056363,0.00001638,0.00051259,0.00055600,-0.0000151
 6,-0.07592299,-0.00065022,-0.00000619,0.00037518,-0.02432472,0.0029281
 8,-0.00263311,0.03277366,-0.00134318,0.00370767,-0.00902489,-0.0016136
 1,0.53329577,-0.10265385,-0.15282339,0.00012054,-0.02121372,-0.0645880
 4,0.00027486,0.02144159,-0.06443119,0.00026499,0.10335095,-0.15293194,
 0.00012232,0.00368045,-0.00145687,-0.00000463,-0.00366571,-0.00146288,
 -0.00000294,-0.00177168,-0.26430685,-0.00396627,-0.00947964,-0.0336635
 8,0.00971159,0.01309887,-0.03173822,0.00344462,-0.00340083,-0.03519165
 ,-0.01358912,0.00144919,0.77193613,-0.00018556,0.00011191,-0.03189032,
 -0.00010890,0.00017334,0.01123943,0.00010342,0.00017000,0.01146485,0.0
 0024509,0.00010990,-0.03322518,0.00001105,-0.00002103,-0.00167672,-0.0
 0001086,-0.00002031,-0.00165046,-0.00001451,-0.00234428,-0.03202865,0.
 00331615,0.01734085,0.00059232,-0.00149706,0.00615670,0.00284511,-0.00
 181945,-0.02449966,-0.00238208,-0.00005810,0.00339585,0.05826275,0.031
 32227,0.01557017,-0.00016473,-0.00088788,-0.00259864,-0.00004092,-0.03
 077045,-0.03074401,0.00007105,-0.61424359,-0.25294991,0.00025967,0.001
 03074,0.00122756,0.00000492,-0.00131078,0.00164884,-0.00000649,-0.0034
 4803,0.00171015,0.00021168,-0.00055197,-0.00063624,0.00053094,0.000994
 25,-0.00012519,0.00023489,-0.00004618,-0.00050626,-0.00088448,-0.12542
 622,0.01105989,-0.00031711,0.76031721,0.00807168,-0.00488078,0.0001001
 5,-0.00188601,-0.00357900,-0.00003248,-0.03943473,-0.02403635,0.000078
 40,-0.22435811,-0.14060687,0.00017249,-0.00009088,0.00143108,0.0000024
 7,-0.00102258,0.00125341,-0.00000045,0.00168682,-0.00056213,0.00010297
 ,-0.00058771,0.00012373,-0.00004580,0.00008077,0.00038572,-0.00000832,
 -0.00043744,0.00031220,0.00011200,0.00462235,0.01548309,-0.00028547,0.
 25487540,0.15268871,0.00002101,0.00004781,0.00615499,0.00001561,-0.000
 01034,-0.00065565,0.00000356,0.00000164,0.01571794,0.00015178,0.000150
 29,-0.05119882,0.00000269,0.00000330,-0.00115978,-0.00000108,0.0000046
 7,-0.00032226,-0.00005629,-0.00008332,0.00114883,0.00014251,-0.0002287
 3,-0.00017645,0.00001710,-0.00010764,-0.00003731,-0.00006420,0.0003160
 3,-0.00006959,-0.00022477,0.00010379,0.00935367,0.00004440,-0.00017284
 ,0.02267022,-0.61460484,0.25231323,-0.00008988,-0.03091053,0.03061284,
 -0.00006322,-0.00088206,0.00258347,0.00004022,0.03148450,-0.01544443,0
 .00017951,-0.00129594,-0.00165382,0.00000739,0.00102852,-0.00122165,-0
 .00000510,-0.00379034,-0.00158035,-0.00017442,0.00074916,0.00008810,-0
 .00071957,-0.00055720,0.00094881,-0.00030694,0.00035582,0.00016399,0.0
 0096415,-0.12552859,-0.01189551,0.00033578,-0.01698010,-0.00152010,-0.
 00005233,0.76093067,0.22327715,-0.13959447,0.00010410,0.03939492,-0.02
 380012,0.00007338,0.00192323,-0.00356135,-0.00003351,-0.00787292,-0.00
 501905,0.00010479,0.00101932,0.00125170,-0.00000101,0.00008578,0.00142
 642,0.00000204,-0.00195751,-0.00025489,0.00010562,-0.00000420,0.000366
 28,-0.00000504,0.00128806,0.00064491,-0.00007398,0.00016522,0.00034392
 ,0.00001860,-0.00539202,0.01517640,-0.00028762,0.00146679,0.00198669,-
 0.00002463,-0.25339312,0.15103304,-0.00001896,0.00006170,-0.05106641,0
 .00000477,-0.00000034,0.01572580,-0.00001740,-0.00000682,-0.00067098,-
 0.00002980,0.00005206,0.00619287,0.00000084,0.00000480,-0.00031876,-0.
 00000345,0.00000322,-0.00115747,0.00008198,-0.00006230,0.00123498,-0.0
 0000931,-0.00027909,-0.00002777,-0.00023129,-0.00021505,-0.00014282,-0
 .00000752,0.00032348,-0.00004567,0.00028952,0.00012447,0.00909625,0.00
 005582,-0.00002323,-0.00142538,-0.00011521,0.00001714,0.02260576\\-0.0
 0003761,0.00002616,-0.00001450,-0.00001522,-0.00003619,0.00002106,-0.0
 0001452,0.00001769,-0.00002002,0.00006783,0.00002005,0.00004873,0.0000
 0717,0.00000942,-0.00000567,-0.00000412,0.00000410,-0.00000385,0.00001
 706,-0.00000448,0.00002664,0.00001780,0.00002715,-0.00001043,-0.000006
 40,-0.00002331,0.00000367,-0.00000187,-0.00000599,-0.00000523,-0.00000
 898,0.00000249,-0.00003031,-0.00005495,-0.00001888,-0.00001435,0.00003
 381,-0.00001821,0.00000427\\\@


 ABOVE ALL I AM AN OPTIMIST FOR NUMBER THEORY,
 AND I HOLD THE HOPE THAT WE MAY NOT BE FAR FROM
 A TIME WHEN IRREFUTABLE ARITHMETIC WILL CELEBRATE
 ITS TRIUMPHS IN PHYSICS AND CHEMISTRY.
   -- HERMANN MINKOWSKI, 1905
 Job cpu time:       0 days  0 hours  0 minutes 10.4 seconds.
 File lengths (MBytes):  RWF=     26 Int=      0 D2E=      0 Chk=      7 Scr=      1
 Normal termination of Gaussian 09 at Wed Aug 12 16:54:23 2020.
