 Entering Gaussian System, Link 0=g09
 Input=water_cyclohexene_pm6_cpcmtoluene_2.com
 Output=water_cyclohexene_pm6_cpcmtoluene_2.log
 Initial command:
 /apps/applications/gaussian/G09.D01/2/default/g09/l1.exe "/local/697345.1.40core-192G.q/Gau-251301.inp" -scrdir="/local/697345.1.40core-192G.q/"
 Entering Link 1 = /apps/applications/gaussian/G09.D01/2/default/g09/l1.exe PID=    251302.
  
 Copyright (c) 1988,1990,1992,1993,1995,1998,2003,2009,2013,
            Gaussian, Inc.  All Rights Reserved.
  
 This is part of the Gaussian(R) 09 program.  It is based on
 the Gaussian(R) 03 system (copyright 2003, Gaussian, Inc.),
 the Gaussian(R) 98 system (copyright 1998, Gaussian, Inc.),
 the Gaussian(R) 94 system (copyright 1995, Gaussian, Inc.),
 the Gaussian 92(TM) system (copyright 1992, Gaussian, Inc.),
 the Gaussian 90(TM) system (copyright 1990, Gaussian, Inc.),
 the Gaussian 88(TM) system (copyright 1988, Gaussian, Inc.),
 the Gaussian 86(TM) system (copyright 1986, Carnegie Mellon
 University), and the Gaussian 82(TM) system (copyright 1983,
 Carnegie Mellon University). Gaussian is a federally registered
 trademark of Gaussian, Inc.
  
 This software contains proprietary and confidential information,
 including trade secrets, belonging to Gaussian, Inc.
  
 This software is provided under written license and may be
 used, copied, transmitted, or stored only in accord with that
 written license.
  
 The following legend is applicable only to US Government
 contracts under FAR:
  
                    RESTRICTED RIGHTS LEGEND
  
 Use, reproduction and disclosure by the US Government is
 subject to restrictions as set forth in subparagraphs (a)
 and (c) of the Commercial Computer Software - Restricted
 Rights clause in FAR 52.227-19.
  
 Gaussian, Inc.
 340 Quinnipiac St., Bldg. 40, Wallingford CT 06492
  
  
 ---------------------------------------------------------------
 Warning -- This program may not be used in any manner that
 competes with the business of Gaussian, Inc. or will provide
 assistance to any competitor of Gaussian, Inc.  The licensee
 of this program is prohibited from giving any competitor of
 Gaussian, Inc. access to this program.  By using this program,
 the user acknowledges that Gaussian, Inc. is engaged in the
 business of creating and licensing software in the field of
 computational chemistry and represents and warrants to the
 licensee that it is not a competitor of Gaussian, Inc. and that
 it will not use this program in any manner prohibited above.
 ---------------------------------------------------------------
  

 Cite this work as:
 Gaussian 09, Revision D.01,
 M. J. Frisch, G. W. Trucks, H. B. Schlegel, G. E. Scuseria, 
 M. A. Robb, J. R. Cheeseman, G. Scalmani, V. Barone, B. Mennucci, 
 G. A. Petersson, H. Nakatsuji, M. Caricato, X. Li, H. P. Hratchian, 
 A. F. Izmaylov, J. Bloino, G. Zheng, J. L. Sonnenberg, M. Hada, 
 M. Ehara, K. Toyota, R. Fukuda, J. Hasegawa, M. Ishida, T. Nakajima, 
 Y. Honda, O. Kitao, H. Nakai, T. Vreven, J. A. Montgomery, Jr., 
 J. E. Peralta, F. Ogliaro, M. Bearpark, J. J. Heyd, E. Brothers, 
 K. N. Kudin, V. N. Staroverov, T. Keith, R. Kobayashi, J. Normand, 
 K. Raghavachari, A. Rendell, J. C. Burant, S. S. Iyengar, J. Tomasi, 
 M. Cossi, N. Rega, J. M. Millam, M. Klene, J. E. Knox, J. B. Cross, 
 V. Bakken, C. Adamo, J. Jaramillo, R. Gomperts, R. E. Stratmann, 
 O. Yazyev, A. J. Austin, R. Cammi, C. Pomelli, J. W. Ochterski, 
 R. L. Martin, K. Morokuma, V. G. Zakrzewski, G. A. Voth, 
 P. Salvador, J. J. Dannenberg, S. Dapprich, A. D. Daniels, 
 O. Farkas, J. B. Foresman, J. V. Ortiz, J. Cioslowski, 
 and D. J. Fox, Gaussian, Inc., Wallingford CT, 2013.
 
 ******************************************
 Gaussian 09:  ES64L-G09RevD.01 24-Apr-2013
                12-Aug-2020 
 ******************************************
 %nprocshared=4
 Will use up to    4 processors via shared memory.
 %chk=water_cyclohexene_pm6_cpcmtoluene_2.chk
 ----------------------------------------------------------------------
 # opt freq pm6 scrf=(cpcm,solvent=water) geom=connectivity empiricaldi
 spersion=gd3
 ----------------------------------------------------------------------
 1/14=-1,18=20,19=15,26=1,38=1,57=2/1,3;
 2/9=110,12=2,17=6,18=5,40=1/2;
 3/5=2,16=1,25=1,41=3900000,70=2101,71=1,72=1,124=31/1,2,3;
 4/35=1/1;
 5/5=2,35=1,38=5,53=1/2;
 6/7=2,8=2,9=2,10=2,28=1/1;
 7//1,2,3,16;
 1/14=-1,18=20,19=15,26=1/3(2);
 2/9=110/2;
 99//99;
 2/9=110/2;
 3/5=2,16=1,25=1,41=3900000,70=2105,71=1,72=1,124=31,135=20/1,2,3;
 4/5=5,16=3,35=1/1;
 5/5=2,35=1,38=5,53=1/2;
 7//1,2,3,16;
 1/14=-1,18=20,19=15,26=1/3(-5);
 2/9=110/2;
 6/7=2,8=2,9=2,10=2,19=2,28=1/1;
 99/9=1/99;
 -------------------
 Title Card Required
 -------------------
 Symbolic Z-matrix:
 Charge =  0 Multiplicity = 1
 C                    -2.8838    0.25434  -0.21289 
 C                    -1.55436   0.84508  -0.69982 
 C                    -0.56497  -0.3506   -0.74793 
 C                    -1.35188  -1.55891  -0.21953 
 H                    -1.71106   1.22821  -1.74056 
 H                    -0.30769  -0.56493  -1.81827 
 C                    -3.74087  -2.02894   0.55319 
 H                    -3.74036  -2.04033   1.65752 
 H                    -4.73409  -1.69037   0.20856 
 H                    -3.5775   -3.06087   0.19453 
 N                    -2.68621  -1.13345   0.0376 
 O                    -0.9636   -2.69034  -0.05331 
 O                    -3.94196   0.81844  -0.06184 
 C                     0.73978  -0.19489   0.06057 
 H                     1.11307  -1.22561   0.32029 
 C                    -1.16384   2.03736   0.20996 
 H                    -2.11818   2.50324   0.58188 
 C                    -0.34999   1.59282   1.39694 
 H                    -0.50794   2.16365   2.31074 
 C                     0.5181    0.58157   1.32969 
 H                     1.1237    0.26921   2.17852 
 C                    -0.40148   3.10848  -0.57741 
 H                    -0.99083   3.49567  -1.41593 
 H                    -0.14733   3.96192   0.06382 
 H                     0.54738   2.72142  -0.98507 
 C                     1.81467   0.48456  -0.80829 
 H                     1.9634   -0.03006  -1.77348 
 H                     1.61187   1.56807  -0.96867 
 C                     3.87741  -0.59967  -0.09959 
 C                     5.08381  -0.34058   0.72418 
 H                     5.16079  -1.06659   1.55162 
 H                     6.00385  -0.4412    0.12361 
 H                     5.09038   0.66785   1.17032 
 O                     3.56722  -1.58951  -0.72362 
 O                     3.07441   0.52278  -0.08335 
 

 GradGradGradGradGradGradGradGradGradGradGradGradGradGradGradGradGradGrad
 Berny optimization.
 Initialization pass.
                           ----------------------------
                           !    Initial Parameters    !
                           ! (Angstroms and Degrees)  !
 --------------------------                            --------------------------
 ! Name  Definition              Value          Derivative Info.                !
 --------------------------------------------------------------------------------
 ! R1    R(1,2)                  1.5341         estimate D2E/DX2                !
 ! R2    R(1,11)                 1.424          estimate D2E/DX2                !
 ! R3    R(1,13)                 1.2086         estimate D2E/DX2                !
 ! R4    R(2,3)                  1.5527         estimate D2E/DX2                !
 ! R5    R(2,5)                  1.12           estimate D2E/DX2                !
 ! R6    R(2,16)                 1.5498         estimate D2E/DX2                !
 ! R7    R(3,4)                  1.5357         estimate D2E/DX2                !
 ! R8    R(3,6)                  1.1215         estimate D2E/DX2                !
 ! R9    R(3,14)                 1.5428         estimate D2E/DX2                !
 ! R10   R(4,11)                 1.4239         estimate D2E/DX2                !
 ! R11   R(4,12)                 1.2077         estimate D2E/DX2                !
 ! R12   R(7,8)                  1.1044         estimate D2E/DX2                !
 ! R13   R(7,9)                  1.1045         estimate D2E/DX2                !
 ! R14   R(7,10)                 1.1046         estimate D2E/DX2                !
 ! R15   R(7,11)                 1.4765         estimate D2E/DX2                !
 ! R16   R(14,15)                1.1266         estimate D2E/DX2                !
 ! R17   R(14,20)                1.5042         estimate D2E/DX2                !
 ! R18   R(14,26)                1.5401         estimate D2E/DX2                !
 ! R19   R(16,17)                1.1252         estimate D2E/DX2                !
 ! R20   R(16,18)                1.5063         estimate D2E/DX2                !
 ! R21   R(16,22)                1.5325         estimate D2E/DX2                !
 ! R22   R(18,19)                1.089          estimate D2E/DX2                !
 ! R23   R(18,20)                1.3344         estimate D2E/DX2                !
 ! R24   R(20,21)                1.0885         estimate D2E/DX2                !
 ! R25   R(22,23)                1.0956         estimate D2E/DX2                !
 ! R26   R(22,24)                1.0973         estimate D2E/DX2                !
 ! R27   R(22,25)                1.1029         estimate D2E/DX2                !
 ! R28   R(26,27)                1.1039         estimate D2E/DX2                !
 ! R29   R(26,28)                1.1139         estimate D2E/DX2                !
 ! R30   R(26,35)                1.4539         estimate D2E/DX2                !
 ! R31   R(29,30)                1.4836         estimate D2E/DX2                !
 ! R32   R(29,34)                1.2105         estimate D2E/DX2                !
 ! R33   R(29,35)                1.3802         estimate D2E/DX2                !
 ! R34   R(30,31)                1.1035         estimate D2E/DX2                !
 ! R35   R(30,32)                1.1033         estimate D2E/DX2                !
 ! R36   R(30,33)                1.1027         estimate D2E/DX2                !
 ! A1    A(2,1,11)             108.112          estimate D2E/DX2                !
 ! A2    A(2,1,13)             128.2179         estimate D2E/DX2                !
 ! A3    A(11,1,13)            123.6674         estimate D2E/DX2                !
 ! A4    A(1,2,3)              105.3966         estimate D2E/DX2                !
 ! A5    A(1,2,5)              107.7834         estimate D2E/DX2                !
 ! A6    A(1,2,16)             109.1648         estimate D2E/DX2                !
 ! A7    A(3,2,5)              108.8915         estimate D2E/DX2                !
 ! A8    A(3,2,16)             116.7473         estimate D2E/DX2                !
 ! A9    A(5,2,16)             108.5163         estimate D2E/DX2                !
 ! A10   A(2,3,4)              105.5885         estimate D2E/DX2                !
 ! A11   A(2,3,6)              108.8391         estimate D2E/DX2                !
 ! A12   A(2,3,14)             116.4188         estimate D2E/DX2                !
 ! A13   A(4,3,6)              107.1908         estimate D2E/DX2                !
 ! A14   A(4,3,14)             109.4168         estimate D2E/DX2                !
 ! A15   A(6,3,14)             108.9909         estimate D2E/DX2                !
 ! A16   A(3,4,11)             107.8902         estimate D2E/DX2                !
 ! A17   A(3,4,12)             128.2969         estimate D2E/DX2                !
 ! A18   A(11,4,12)            123.8037         estimate D2E/DX2                !
 ! A19   A(8,7,9)              108.396          estimate D2E/DX2                !
 ! A20   A(8,7,10)             108.3588         estimate D2E/DX2                !
 ! A21   A(8,7,11)             110.8003         estimate D2E/DX2                !
 ! A22   A(9,7,10)             108.5447         estimate D2E/DX2                !
 ! A23   A(9,7,11)             110.3322         estimate D2E/DX2                !
 ! A24   A(10,7,11)            110.3386         estimate D2E/DX2                !
 ! A25   A(1,11,4)             112.9209         estimate D2E/DX2                !
 ! A26   A(1,11,7)             123.6004         estimate D2E/DX2                !
 ! A27   A(4,11,7)             123.4485         estimate D2E/DX2                !
 ! A28   A(3,14,15)            107.9801         estimate D2E/DX2                !
 ! A29   A(3,14,20)            111.6909         estimate D2E/DX2                !
 ! A30   A(3,14,26)            109.8234         estimate D2E/DX2                !
 ! A31   A(15,14,20)           109.0621         estimate D2E/DX2                !
 ! A32   A(15,14,26)           107.6036         estimate D2E/DX2                !
 ! A33   A(20,14,26)           110.555          estimate D2E/DX2                !
 ! A34   A(2,16,17)            107.3885         estimate D2E/DX2                !
 ! A35   A(2,16,18)            111.8209         estimate D2E/DX2                !
 ! A36   A(2,16,22)            111.1904         estimate D2E/DX2                !
 ! A37   A(17,16,18)           108.6612         estimate D2E/DX2                !
 ! A38   A(17,16,22)           107.5993         estimate D2E/DX2                !
 ! A39   A(18,16,22)           110.0212         estimate D2E/DX2                !
 ! A40   A(16,18,19)           115.3528         estimate D2E/DX2                !
 ! A41   A(16,18,20)           122.372          estimate D2E/DX2                !
 ! A42   A(19,18,20)           122.2691         estimate D2E/DX2                !
 ! A43   A(14,20,18)           121.9757         estimate D2E/DX2                !
 ! A44   A(14,20,21)           115.3289         estimate D2E/DX2                !
 ! A45   A(18,20,21)           122.6899         estimate D2E/DX2                !
 ! A46   A(16,22,23)           111.8782         estimate D2E/DX2                !
 ! A47   A(16,22,24)           111.0134         estimate D2E/DX2                !
 ! A48   A(16,22,25)           111.8767         estimate D2E/DX2                !
 ! A49   A(23,22,24)           107.2753         estimate D2E/DX2                !
 ! A50   A(23,22,25)           107.694          estimate D2E/DX2                !
 ! A51   A(24,22,25)           106.8397         estimate D2E/DX2                !
 ! A52   A(14,26,27)           112.4354         estimate D2E/DX2                !
 ! A53   A(14,26,28)           112.5367         estimate D2E/DX2                !
 ! A54   A(14,26,35)           109.5736         estimate D2E/DX2                !
 ! A55   A(27,26,28)           110.6158         estimate D2E/DX2                !
 ! A56   A(27,26,35)           109.3585         estimate D2E/DX2                !
 ! A57   A(28,26,35)           101.7687         estimate D2E/DX2                !
 ! A58   A(30,29,34)           129.5969         estimate D2E/DX2                !
 ! A59   A(30,29,35)           108.9375         estimate D2E/DX2                !
 ! A60   A(34,29,35)           121.4639         estimate D2E/DX2                !
 ! A61   A(29,30,31)           110.988          estimate D2E/DX2                !
 ! A62   A(29,30,32)           111.0953         estimate D2E/DX2                !
 ! A63   A(29,30,33)           112.904          estimate D2E/DX2                !
 ! A64   A(31,30,32)           106.8566         estimate D2E/DX2                !
 ! A65   A(31,30,33)           107.3303         estimate D2E/DX2                !
 ! A66   A(32,30,33)           107.3772         estimate D2E/DX2                !
 ! A67   A(26,35,29)           118.4795         estimate D2E/DX2                !
 ! D1    D(11,1,2,3)             1.5739         estimate D2E/DX2                !
 ! D2    D(11,1,2,5)           117.7422         estimate D2E/DX2                !
 ! D3    D(11,1,2,16)         -124.5765         estimate D2E/DX2                !
 ! D4    D(13,1,2,3)          -177.843          estimate D2E/DX2                !
 ! D5    D(13,1,2,5)           -61.6748         estimate D2E/DX2                !
 ! D6    D(13,1,2,16)           56.0065         estimate D2E/DX2                !
 ! D7    D(2,1,11,4)             0.3624         estimate D2E/DX2                !
 ! D8    D(2,1,11,7)           178.4192         estimate D2E/DX2                !
 ! D9    D(13,1,11,4)          179.812          estimate D2E/DX2                !
 ! D10   D(13,1,11,7)           -2.1311         estimate D2E/DX2                !
 ! D11   D(1,2,3,4)             -2.7567         estimate D2E/DX2                !
 ! D12   D(1,2,3,6)            112.0399         estimate D2E/DX2                !
 ! D13   D(1,2,3,14)          -124.3566         estimate D2E/DX2                !
 ! D14   D(5,2,3,4)           -118.1648         estimate D2E/DX2                !
 ! D15   D(5,2,3,6)             -3.3682         estimate D2E/DX2                !
 ! D16   D(5,2,3,14)           120.2353         estimate D2E/DX2                !
 ! D17   D(16,2,3,4)           118.5819         estimate D2E/DX2                !
 ! D18   D(16,2,3,6)          -126.6215         estimate D2E/DX2                !
 ! D19   D(16,2,3,14)           -3.018          estimate D2E/DX2                !
 ! D20   D(1,2,16,17)          -30.2632         estimate D2E/DX2                !
 ! D21   D(1,2,16,18)           88.8515         estimate D2E/DX2                !
 ! D22   D(1,2,16,22)         -147.7292         estimate D2E/DX2                !
 ! D23   D(3,2,16,17)         -149.5981         estimate D2E/DX2                !
 ! D24   D(3,2,16,18)          -30.4834         estimate D2E/DX2                !
 ! D25   D(3,2,16,22)           92.9359         estimate D2E/DX2                !
 ! D26   D(5,2,16,17)           86.9556         estimate D2E/DX2                !
 ! D27   D(5,2,16,18)         -153.9297         estimate D2E/DX2                !
 ! D28   D(5,2,16,22)          -30.5104         estimate D2E/DX2                !
 ! D29   D(2,3,4,11)             3.0375         estimate D2E/DX2                !
 ! D30   D(2,3,4,12)          -178.0432         estimate D2E/DX2                !
 ! D31   D(6,3,4,11)          -112.89           estimate D2E/DX2                !
 ! D32   D(6,3,4,12)            66.0293         estimate D2E/DX2                !
 ! D33   D(14,3,4,11)          129.0609         estimate D2E/DX2                !
 ! D34   D(14,3,4,12)          -52.0198         estimate D2E/DX2                !
 ! D35   D(2,3,14,15)          154.8688         estimate D2E/DX2                !
 ! D36   D(2,3,14,20)           34.9604         estimate D2E/DX2                !
 ! D37   D(2,3,14,26)          -88.0678         estimate D2E/DX2                !
 ! D38   D(4,3,14,15)           35.3126         estimate D2E/DX2                !
 ! D39   D(4,3,14,20)          -84.5959         estimate D2E/DX2                !
 ! D40   D(4,3,14,26)          152.376          estimate D2E/DX2                !
 ! D41   D(6,3,14,15)          -81.6061         estimate D2E/DX2                !
 ! D42   D(6,3,14,20)          158.4855         estimate D2E/DX2                !
 ! D43   D(6,3,14,26)           35.4573         estimate D2E/DX2                !
 ! D44   D(3,4,11,1)            -2.1866         estimate D2E/DX2                !
 ! D45   D(3,4,11,7)           179.7532         estimate D2E/DX2                !
 ! D46   D(12,4,11,1)          178.8341         estimate D2E/DX2                !
 ! D47   D(12,4,11,7)            0.7739         estimate D2E/DX2                !
 ! D48   D(8,7,11,1)           -89.2268         estimate D2E/DX2                !
 ! D49   D(8,7,11,4)            88.6281         estimate D2E/DX2                !
 ! D50   D(9,7,11,1)            30.8246         estimate D2E/DX2                !
 ! D51   D(9,7,11,4)          -151.3205         estimate D2E/DX2                !
 ! D52   D(10,7,11,1)          150.764          estimate D2E/DX2                !
 ! D53   D(10,7,11,4)          -31.3811         estimate D2E/DX2                !
 ! D54   D(3,14,20,18)         -35.3383         estimate D2E/DX2                !
 ! D55   D(3,14,20,21)         145.4909         estimate D2E/DX2                !
 ! D56   D(15,14,20,18)       -154.6084         estimate D2E/DX2                !
 ! D57   D(15,14,20,21)         26.2208         estimate D2E/DX2                !
 ! D58   D(26,14,20,18)         87.2728         estimate D2E/DX2                !
 ! D59   D(26,14,20,21)        -91.898          estimate D2E/DX2                !
 ! D60   D(3,14,26,27)         -53.2117         estimate D2E/DX2                !
 ! D61   D(3,14,26,28)          72.5039         estimate D2E/DX2                !
 ! D62   D(3,14,26,35)        -175.0436         estimate D2E/DX2                !
 ! D63   D(15,14,26,27)         64.087          estimate D2E/DX2                !
 ! D64   D(15,14,26,28)       -170.1974         estimate D2E/DX2                !
 ! D65   D(15,14,26,35)        -57.7449         estimate D2E/DX2                !
 ! D66   D(20,14,26,27)       -176.9064         estimate D2E/DX2                !
 ! D67   D(20,14,26,28)        -51.1908         estimate D2E/DX2                !
 ! D68   D(20,14,26,35)         61.2617         estimate D2E/DX2                !
 ! D69   D(2,16,18,19)        -146.5767         estimate D2E/DX2                !
 ! D70   D(2,16,18,20)          34.3051         estimate D2E/DX2                !
 ! D71   D(17,16,18,19)        -28.2173         estimate D2E/DX2                !
 ! D72   D(17,16,18,20)        152.6646         estimate D2E/DX2                !
 ! D73   D(22,16,18,19)         89.346          estimate D2E/DX2                !
 ! D74   D(22,16,18,20)        -89.7722         estimate D2E/DX2                !
 ! D75   D(2,16,22,23)          58.8432         estimate D2E/DX2                !
 ! D76   D(2,16,22,24)         178.6489         estimate D2E/DX2                !
 ! D77   D(2,16,22,25)         -62.0989         estimate D2E/DX2                !
 ! D78   D(17,16,22,23)        -58.4946         estimate D2E/DX2                !
 ! D79   D(17,16,22,24)         61.3111         estimate D2E/DX2                !
 ! D80   D(17,16,22,25)       -179.4367         estimate D2E/DX2                !
 ! D81   D(18,16,22,23)       -176.7148         estimate D2E/DX2                !
 ! D82   D(18,16,22,24)        -56.9091         estimate D2E/DX2                !
 ! D83   D(18,16,22,25)         62.3431         estimate D2E/DX2                !
 ! D84   D(16,18,20,14)         -0.4002         estimate D2E/DX2                !
 ! D85   D(16,18,20,21)        178.7093         estimate D2E/DX2                !
 ! D86   D(19,18,20,14)       -179.4577         estimate D2E/DX2                !
 ! D87   D(19,18,20,21)         -0.3483         estimate D2E/DX2                !
 ! D88   D(14,26,35,29)         82.6578         estimate D2E/DX2                !
 ! D89   D(27,26,35,29)        -41.0011         estimate D2E/DX2                !
 ! D90   D(28,26,35,29)       -158.0281         estimate D2E/DX2                !
 ! D91   D(34,29,30,31)        -59.8031         estimate D2E/DX2                !
 ! D92   D(34,29,30,32)         58.94           estimate D2E/DX2                !
 ! D93   D(34,29,30,33)        179.6372         estimate D2E/DX2                !
 ! D94   D(35,29,30,31)        120.6789         estimate D2E/DX2                !
 ! D95   D(35,29,30,32)       -120.5779         estimate D2E/DX2                !
 ! D96   D(35,29,30,33)          0.1193         estimate D2E/DX2                !
 ! D97   D(30,29,35,26)       -178.7721         estimate D2E/DX2                !
 ! D98   D(34,29,35,26)          1.6633         estimate D2E/DX2                !
 --------------------------------------------------------------------------------
 Trust Radius=3.00D-01 FncErr=1.00D-07 GrdErr=1.00D-07
 Number of steps in this run=    210 maximum allowed number of steps=    210.
 GradGradGradGradGradGradGradGradGradGradGradGradGradGradGradGradGradGrad

                          Input orientation:                          
 ---------------------------------------------------------------------
 Center     Atomic      Atomic             Coordinates (Angstroms)
 Number     Number       Type             X           Y           Z
 ---------------------------------------------------------------------
      1          6           0       -2.883796    0.254338   -0.212888
      2          6           0       -1.554364    0.845080   -0.699824
      3          6           0       -0.564971   -0.350597   -0.747927
      4          6           0       -1.351875   -1.558913   -0.219534
      5          1           0       -1.711060    1.228208   -1.740558
      6          1           0       -0.307694   -0.564925   -1.818273
      7          6           0       -3.740865   -2.028939    0.553190
      8          1           0       -3.740361   -2.040331    1.657517
      9          1           0       -4.734095   -1.690369    0.208559
     10          1           0       -3.577503   -3.060867    0.194531
     11          7           0       -2.686213   -1.133446    0.037597
     12          8           0       -0.963595   -2.690337   -0.053308
     13          8           0       -3.941955    0.818439   -0.061842
     14          6           0        0.739778   -0.194886    0.060570
     15          1           0        1.113066   -1.225612    0.320288
     16          6           0       -1.163844    2.037359    0.209955
     17          1           0       -2.118184    2.503241    0.581880
     18          6           0       -0.349992    1.592816    1.396942
     19          1           0       -0.507941    2.163652    2.310735
     20          6           0        0.518099    0.581574    1.329688
     21          1           0        1.123695    0.269206    2.178524
     22          6           0       -0.401478    3.108484   -0.577413
     23          1           0       -0.990828    3.495673   -1.415930
     24          1           0       -0.147333    3.961923    0.063819
     25          1           0        0.547383    2.721416   -0.985073
     26          6           0        1.814672    0.484562   -0.808288
     27          1           0        1.963403   -0.030055   -1.773480
     28          1           0        1.611867    1.568068   -0.968669
     29          6           0        3.877408   -0.599668   -0.099585
     30          6           0        5.083807   -0.340576    0.724175
     31          1           0        5.160793   -1.066595    1.551615
     32          1           0        6.003851   -0.441204    0.123610
     33          1           0        5.090382    0.667853    1.170319
     34          8           0        3.567219   -1.589506   -0.723619
     35          8           0        3.074405    0.522784   -0.083351
 ---------------------------------------------------------------------
                    Distance matrix (angstroms):
                    1          2          3          4          5
     1  C    0.000000
     2  C    1.534103   0.000000
     3  C    2.455435   1.552693   0.000000
     4  C    2.373753   2.459850   1.535723   0.000000
     5  H    2.158126   1.120030   2.188941   3.195398   0.000000
     6  H    3.144003   2.189344   1.121503   2.152741   2.278333
     7  C    2.556325   3.822410   3.820476   2.554467   4.471062
     8  H    3.081822   4.319865   4.327177   3.075703   5.133062
     9  H    2.717188   4.167055   4.482349   3.411738   4.632050
    10  H    3.411423   4.488807   4.160425   2.716751   5.062049
    11  N    1.423983   2.395712   2.393652   1.423937   3.112903
    12  O    3.519055   3.642275   2.473010   1.207689   4.331341
    13  O    1.208605   2.471502   3.638871   3.519259   2.821859
    14  C    3.661539   2.631124   1.542817   2.512775   3.357956
    15  H    4.295280   3.527545   2.173141   2.545276   4.271300
    16  C    2.513204   1.549753   2.641689   3.626705   2.181438
    17  H    2.505071   2.170289   3.510733   4.210771   2.680518
    18  C    3.286828   2.531017   2.902332   3.681054   3.439382
    19  H    3.957125   3.449217   3.959812   4.579517   4.328455
    20  C    3.749602   2.912638   2.521600   3.237063   3.848856
    21  H    4.666804   3.973477   3.435093   3.901429   4.930996
    22  C    3.800122   2.543055   3.467138   4.776602   2.569698
    23  H    3.941686   2.802860   3.927006   5.206780   2.401149
    24  H    4.616382   3.503940   4.408081   5.657812   3.629630
    25  H    4.296014   2.831845   3.275795   4.744939   2.810870
    26  C    4.741635   3.390006   2.522664   3.814373   3.721951
    27  H    5.100163   3.780646   2.747213   3.967773   3.884068
    28  H    4.744268   3.258835   2.910090   4.372983   3.428288
    29  C    6.815867   5.652586   4.496345   5.317889   6.104498
    30  C    8.044545   6.891942   5.837455   6.617623   7.396365
    31  H    8.341088   7.335994   6.211676   6.767140   7.957819
    32  H    8.921170   7.710978   6.627006   7.448069   8.110605
    33  H    8.103812   6.905179   6.058046   6.956497   7.419354
    34  O    6.728759   5.670837   4.313987   4.944949   6.069094
    35  O    5.965652   4.680750   3.801252   4.893257   5.113182
                    6          7          8          9         10
     6  H    0.000000
     7  C    4.421972   0.000000
     8  H    5.103052   1.104386   0.000000
     9  H    4.996769   1.104494   1.791497   0.000000
    10  H    4.579602   1.104626   1.791185   1.793367   0.000000
    11  N    3.069987   1.476494   2.134903   2.129134   2.129314
    12  O    2.839487   2.918650   3.325637   3.909627   2.651647
    13  O    4.266919   2.919977   3.342065   2.644753   3.904813
    14  C    2.182700   4.866476   5.101721   5.676412   5.183696
    15  H    2.651134   4.925467   5.099775   5.866666   5.038394
    16  C    3.408604   4.826347   5.036013   5.161652   5.640735
    17  H    4.295608   4.813998   4.942924   4.956685   5.765323
    18  C    3.872369   5.032598   4.976169   5.604634   5.789593
    19  H    4.953175   5.578403   5.343099   6.093685   6.418421
    20  C    3.450515   5.055344   5.011620   5.831312   5.597313
    21  H    4.326550   5.620242   5.409663   6.483394   6.093183
    22  C    3.878461   6.230801   6.530953   6.512934   6.981685
    23  H    4.137271   6.477768   6.903140   6.598943   7.229985
    24  H    4.905134   7.003098   7.174732   7.280641   7.816824
    25  H    3.496486   6.581884   6.931253   6.984455   7.200066
    26  C    2.574088   6.247824   6.581312   6.975002   6.530794
    27  H    2.333661   6.476697   6.953120   7.179248   6.615174
    28  H    2.992691   6.626179   6.968769   7.230111   7.050506
    29  C    4.524398   7.778625   7.949423   8.685768   7.856189
    30  C    5.965120   8.986359   9.034724   9.923659   9.093888
    31  H    6.442994   9.009022   8.954882  10.005084   9.065132
    32  H    6.604681   9.882557   9.992985  10.810694   9.933278
    33  H    6.292110   9.254429   9.249521  10.149214   9.486187
    34  O    4.154875   7.431785   7.698947   8.354097   7.352207
    35  O    3.953689   7.305093   7.486068   8.121326   7.560929
                   11         12         13         14         15
    11  N    0.000000
    12  O    2.323701   0.000000
    13  O    2.323065   4.602414   0.000000
    14  C    3.552300   3.023528   4.791705   0.000000
    15  H    3.810896   2.568563   5.466023   1.126585   0.000000
    16  C    3.521551   4.739253   3.045905   2.937518   3.980386
    17  H    3.720805   5.358152   2.564971   3.964795   4.941027
    18  C    3.839043   4.563456   3.953468   2.483821   3.353097
    19  H    4.558824   5.418259   4.385336   3.490379   4.251665
    20  C    3.857254   3.848831   4.678092   1.504225   2.153786
    21  H    4.589815   4.254027   5.566121   2.201932   2.384876
    22  C    4.857182   5.849529   4.247952   3.552709   4.678044
    23  H    5.139632   6.334367   4.208359   4.335352   5.452647
    24  H    5.692924   6.703176   4.929142   4.250416   5.344614
    25  H    5.134390   5.695464   4.962644   3.104062   4.195592
    26  C    4.857102   4.285878   5.814414   1.540117   2.165786
    27  H    5.110421   4.313167   6.206682   2.210920   2.556618
    28  H    5.175349   5.060129   5.677078   2.219883   3.116867
    29  C    6.586718   5.273362   7.947005   3.167684   2.865255
    30  C    7.840487   6.534289   9.133757   4.396838   4.088178
    31  H    7.992010   6.536088   9.434862   4.746416   4.233857
    32  H    8.718016   7.323606  10.026971   5.270210   4.957192
    33  H    8.062454   7.030316   9.117237   4.572047   4.486291
    34  O    6.316079   4.710565   7.913523   3.248744   2.691659
    35  O    5.995202   5.160474   7.022619   2.446681   2.658320
                   16         17         18         19         20
    16  C    0.000000
    17  H    1.125228   0.000000
    18  C    1.506291   2.149349   0.000000
    19  H    2.204413   2.386869   1.088953   0.000000
    20  C    2.490390   3.346940   1.334435   2.125602   0.000000
    21  H    3.497780   4.248525   2.129452   2.503726   1.088505
    22  C    1.532468   2.158091   2.489574   3.040632   3.296654
    23  H    2.190917   2.499419   3.455978   3.986915   4.278697
    24  H    2.181421   2.506071   2.725978   2.900422   3.670420
    25  H    2.196434   3.099708   2.784424   3.505305   3.152443
    26  C    3.509922   4.634111   3.282840   4.235821   2.502290
    27  H    4.241213   5.350202   4.247009   5.253637   3.477448
    28  H    3.051878   4.146327   3.073373   3.950038   2.729825
    29  C    5.697714   6.785246   4.991742   5.716368   3.837071
    30  C    6.704636   7.744431   5.806616   6.328979   4.697094
    31  H    7.171863   8.165024   6.120878   6.568509   4.931564
    32  H    7.584628   8.651429   6.791902   7.346579   5.709131
    33  H    6.474040   7.461792   5.523095   5.905860   4.575873
    34  O    6.033960   7.125918   5.474349   6.316679   4.269285
    35  O    4.510291   5.597117   3.881073   4.610564   2.921444
                   21         22         23         24         25
    21  H    0.000000
    22  C    4.240618   0.000000
    23  H    5.272703   1.095609   0.000000
    24  H    4.441131   1.097327   1.765936   0.000000
    25  H    4.043985   1.102881   1.775163   1.766823   0.000000
    26  C    3.073251   3.442323   4.160150   4.086817   2.576973
    27  H    4.051296   4.107757   4.613684   4.875117   3.193320
    28  H    3.439503   2.565058   3.269514   3.145053   1.569588
    29  C    3.677996   5.682216   6.496484   6.085504   4.785682
    30  C    4.262564   6.608971   7.496536   6.805321   5.733800
    31  H    4.298318   7.273438   8.213590   7.461617   6.485936
    32  H    5.342591   7.356627   8.172804   7.564930   6.403467
    33  H    4.112177   6.258736   7.187932   6.285610   5.431544
    34  O    4.224696   6.151670   6.863974   6.725795   5.269897
    35  O    2.997607   4.360241   5.209602   4.714757   3.468851
                   26         27         28         29         30
    26  C    0.000000
    27  H    1.103878   0.000000
    28  H    1.113929   1.823539   0.000000
    29  C    2.435712   2.605724   3.253777   0.000000
    30  C    3.703585   4.008943   4.308481   1.483613   0.000000
    31  H    4.378556   4.727999   5.088041   2.142792   1.103489
    32  H    4.390296   4.482545   4.951744   2.143988   1.103307
    33  H    3.831287   4.350980   4.181593   2.165773   1.102731
    34  O    2.716680   2.471097   3.722059   1.210543   2.440486
    35  O    1.453933   2.096781   2.003852   1.380209   2.331348
                   31         32         33         34         35
    31  H    0.000000
    32  H    1.772303   0.000000
    33  H    1.777260   1.777648   0.000000
    34  O    2.826589   2.823751   3.317031   0.000000
    35  O    3.090672   3.090916   2.378423   2.261543   0.000000
 Stoichiometry    C13H17NO4
 Framework group  C1[X(C13H17NO4)]
 Deg. of freedom    99
 Full point group                 C1      NOp   1
 Largest Abelian subgroup         C1      NOp   1
 Largest concise Abelian subgroup C1      NOp   1
                         Standard orientation:                         
 ---------------------------------------------------------------------
 Center     Atomic      Atomic             Coordinates (Angstroms)
 Number     Number       Type             X           Y           Z
 ---------------------------------------------------------------------
      1          6           0       -2.883796    0.254338   -0.212888
      2          6           0       -1.554364    0.845080   -0.699824
      3          6           0       -0.564971   -0.350597   -0.747927
      4          6           0       -1.351875   -1.558913   -0.219534
      5          1           0       -1.711060    1.228208   -1.740558
      6          1           0       -0.307694   -0.564925   -1.818273
      7          6           0       -3.740865   -2.028939    0.553190
      8          1           0       -3.740361   -2.040331    1.657517
      9          1           0       -4.734095   -1.690369    0.208559
     10          1           0       -3.577503   -3.060867    0.194531
     11          7           0       -2.686213   -1.133446    0.037597
     12          8           0       -0.963595   -2.690337   -0.053308
     13          8           0       -3.941955    0.818439   -0.061842
     14          6           0        0.739778   -0.194886    0.060570
     15          1           0        1.113066   -1.225612    0.320288
     16          6           0       -1.163844    2.037359    0.209955
     17          1           0       -2.118184    2.503241    0.581880
     18          6           0       -0.349992    1.592816    1.396942
     19          1           0       -0.507941    2.163652    2.310735
     20          6           0        0.518099    0.581574    1.329688
     21          1           0        1.123695    0.269206    2.178524
     22          6           0       -0.401478    3.108484   -0.577413
     23          1           0       -0.990828    3.495673   -1.415930
     24          1           0       -0.147333    3.961923    0.063819
     25          1           0        0.547383    2.721416   -0.985073
     26          6           0        1.814672    0.484562   -0.808288
     27          1           0        1.963403   -0.030055   -1.773480
     28          1           0        1.611867    1.568068   -0.968669
     29          6           0        3.877408   -0.599668   -0.099585
     30          6           0        5.083807   -0.340576    0.724175
     31          1           0        5.160793   -1.066595    1.551615
     32          1           0        6.003851   -0.441204    0.123610
     33          1           0        5.090382    0.667853    1.170319
     34          8           0        3.567219   -1.589506   -0.723619
     35          8           0        3.074405    0.522784   -0.083351
 ---------------------------------------------------------------------
 Rotational constants (GHZ):      0.7448112      0.2690621      0.2181422
 Standard basis: VSTO-6G (5D, 7F)
 There are    89 symmetry adapted cartesian basis functions of A   symmetry.
 There are    89 symmetry adapted basis functions of A   symmetry.
    89 basis functions,   534 primitive gaussians,    89 cartesian basis functions
    49 alpha electrons       49 beta electrons
       nuclear repulsion energy       787.3035218409 Hartrees.
 Integral buffers will be    131072 words long.
 Regular integral format.
 Two-electron integral symmetry is turned off.
 Nuclear repulsion after empirical dispersion term =      787.2912923294 Hartrees.
 ------------------------------------------------------------------------------
 Polarizable Continuum Model (PCM)
 =================================
 Model                : C-PCM.
 Atomic radii         : UFF (Universal Force Field).
 Polarization charges : Total charges.
 Charge compensation  : None.
 Solution method      : On-the-fly selection.
 Cavity type          : Scaled VdW (van der Waals Surface) (Alpha=1.100).
 Cavity algorithm     : GePol (No added spheres)
                        Default sphere list used, NSphG=   35.
                        Lebedev-Laikov grids with approx.  5.0 points / Ang**2.
                        Smoothing algorithm: Karplus/York (Gamma=1.0000).
                        Polarization charges: spherical gaussians, with
                                              point-specific exponents (IZeta= 3).
                        Self-potential: point-specific (ISelfS= 7).
                        Self-field    : sphere-specific E.n sum rule (ISelfD= 2).
 1st derivatives      : Analytical E(r).r(x)/FMM algorithm (CHGder, D1EAlg=3).
                        Cavity 1st derivative terms included.
 Solvent              : Water, Eps=  78.355300 Eps(inf)=   1.777849
 ------------------------------------------------------------------------------
 Do NDO integrals.
 One-electron integrals computed using PRISM.
 NBasis=    89 RedAO= F EigKep=  0.00D+00  NBF=    89
 NBsUse=    89 1.00D-04 EigRej=  0.00D+00 NBFU=    89
 Simple Huckel Guess.
 Overlap will be assumed to be unity.
 Keep J ints in memory in canonical form, NReq=10073885.
 Requested convergence on RMS density matrix=1.00D-08 within 128 cycles.
 Requested convergence on MAX density matrix=1.00D-06.
 Requested convergence on             energy=1.00D-06.
 No special actions if energy rises.
 Inv3:  Mode=1 IEnd=    18630192.
 Iteration    1 A*A^-1 deviation from unit magnitude is 8.33D-15 for   2480.
 Iteration    1 A*A^-1 deviation from orthogonality  is 2.89D-15 for   1253   1127.
 Iteration    1 A^-1*A deviation from unit magnitude is 8.33D-15 for   2480.
 Iteration    1 A^-1*A deviation from orthogonality  is 1.68D-15 for   1253   1127.
 Error on total polarization charges = -0.00048
 SCF Done:  E(RPM6D3) = -0.311903429635     A.U. after   15 cycles
            NFock= 14  Conv=0.66D-08     -V/T= 0.9951

 **********************************************************************

            Population analysis using the SCF density.

 **********************************************************************

 Orbital symmetries:
       Occupied  (A) (A) (A) (A) (A) (A) (A) (A) (A) (A) (A) (A)
                 (A) (A) (A) (A) (A) (A) (A) (A) (A) (A) (A) (A)
                 (A) (A) (A) (A) (A) (A) (A) (A) (A) (A) (A) (A)
                 (A) (A) (A) (A) (A) (A) (A) (A) (A) (A) (A) (A)
                 (A)
       Virtual   (A) (A) (A) (A) (A) (A) (A) (A) (A) (A) (A) (A)
                 (A) (A) (A) (A) (A) (A) (A) (A) (A) (A) (A) (A)
                 (A) (A) (A) (A) (A) (A) (A) (A) (A) (A) (A) (A)
                 (A) (A) (A) (A)
 The electronic state is 1-A.
 Alpha  occ. eigenvalues --   -1.23783  -1.19966  -1.19262  -1.16221  -1.13370
 Alpha  occ. eigenvalues --   -1.11277  -1.03567  -1.02197  -0.99836  -0.94861
 Alpha  occ. eigenvalues --   -0.90377  -0.89287  -0.84087  -0.79894  -0.79374
 Alpha  occ. eigenvalues --   -0.76631  -0.73553  -0.67306  -0.66048  -0.64874
 Alpha  occ. eigenvalues --   -0.63498  -0.62624  -0.61795  -0.60971  -0.59901
 Alpha  occ. eigenvalues --   -0.57887  -0.56620  -0.56258  -0.54800  -0.54596
 Alpha  occ. eigenvalues --   -0.54343  -0.53279  -0.52483  -0.51751  -0.51308
 Alpha  occ. eigenvalues --   -0.51025  -0.50318  -0.49841  -0.48758  -0.48019
 Alpha  occ. eigenvalues --   -0.45798  -0.44558  -0.43654  -0.43038  -0.42511
 Alpha  occ. eigenvalues --   -0.42123  -0.39967  -0.39397  -0.37851
 Alpha virt. eigenvalues --   -0.01352   0.01465   0.01967   0.02360   0.02918
 Alpha virt. eigenvalues --    0.03682   0.07698   0.07925   0.09464   0.09997
 Alpha virt. eigenvalues --    0.11233   0.11855   0.12100   0.12271   0.12676
 Alpha virt. eigenvalues --    0.13441   0.13865   0.14297   0.15287   0.15416
 Alpha virt. eigenvalues --    0.15783   0.17054   0.17411   0.17905   0.18201
 Alpha virt. eigenvalues --    0.18662   0.18709   0.18879   0.18898   0.19115
 Alpha virt. eigenvalues --    0.19296   0.19491   0.20691   0.20867   0.21362
 Alpha virt. eigenvalues --    0.21532   0.21882   0.22073   0.22136   0.24565
          Condensed to atoms (all electrons):
               1          2          3          4          5          6
     1  C    3.389446   0.000000   0.000000   0.000000   0.000000   0.000000
     2  C    0.000000   4.238244   0.000000   0.000000   0.000000   0.000000
     3  C    0.000000   0.000000   4.225727   0.000000   0.000000   0.000000
     4  C    0.000000   0.000000   0.000000   3.386986   0.000000   0.000000
     5  H    0.000000   0.000000   0.000000   0.000000   0.805600   0.000000
     6  H    0.000000   0.000000   0.000000   0.000000   0.000000   0.807321
     7  C    0.000000   0.000000   0.000000   0.000000   0.000000   0.000000
     8  H    0.000000   0.000000   0.000000   0.000000   0.000000   0.000000
     9  H    0.000000   0.000000   0.000000   0.000000   0.000000   0.000000
    10  H    0.000000   0.000000   0.000000   0.000000   0.000000   0.000000
    11  N    0.000000   0.000000   0.000000   0.000000   0.000000   0.000000
    12  O    0.000000   0.000000   0.000000   0.000000   0.000000   0.000000
    13  O    0.000000   0.000000   0.000000   0.000000   0.000000   0.000000
    14  C    0.000000   0.000000   0.000000   0.000000   0.000000   0.000000
    15  H    0.000000   0.000000   0.000000   0.000000   0.000000   0.000000
    16  C    0.000000   0.000000   0.000000   0.000000   0.000000   0.000000
    17  H    0.000000   0.000000   0.000000   0.000000   0.000000   0.000000
    18  C    0.000000   0.000000   0.000000   0.000000   0.000000   0.000000
    19  H    0.000000   0.000000   0.000000   0.000000   0.000000   0.000000
    20  C    0.000000   0.000000   0.000000   0.000000   0.000000   0.000000
    21  H    0.000000   0.000000   0.000000   0.000000   0.000000   0.000000
    22  C    0.000000   0.000000   0.000000   0.000000   0.000000   0.000000
    23  H    0.000000   0.000000   0.000000   0.000000   0.000000   0.000000
    24  H    0.000000   0.000000   0.000000   0.000000   0.000000   0.000000
    25  H    0.000000   0.000000   0.000000   0.000000   0.000000   0.000000
    26  C    0.000000   0.000000   0.000000   0.000000   0.000000   0.000000
    27  H    0.000000   0.000000   0.000000   0.000000   0.000000   0.000000
    28  H    0.000000   0.000000   0.000000   0.000000   0.000000   0.000000
    29  C    0.000000   0.000000   0.000000   0.000000   0.000000   0.000000
    30  C    0.000000   0.000000   0.000000   0.000000   0.000000   0.000000
    31  H    0.000000   0.000000   0.000000   0.000000   0.000000   0.000000
    32  H    0.000000   0.000000   0.000000   0.000000   0.000000   0.000000
    33  H    0.000000   0.000000   0.000000   0.000000   0.000000   0.000000
    34  O    0.000000   0.000000   0.000000   0.000000   0.000000   0.000000
    35  O    0.000000   0.000000   0.000000   0.000000   0.000000   0.000000
               7          8          9         10         11         12
     1  C    0.000000   0.000000   0.000000   0.000000   0.000000   0.000000
     2  C    0.000000   0.000000   0.000000   0.000000   0.000000   0.000000
     3  C    0.000000   0.000000   0.000000   0.000000   0.000000   0.000000
     4  C    0.000000   0.000000   0.000000   0.000000   0.000000   0.000000
     5  H    0.000000   0.000000   0.000000   0.000000   0.000000   0.000000
     6  H    0.000000   0.000000   0.000000   0.000000   0.000000   0.000000
     7  C    4.265700   0.000000   0.000000   0.000000   0.000000   0.000000
     8  H    0.000000   0.837253   0.000000   0.000000   0.000000   0.000000
     9  H    0.000000   0.000000   0.829542   0.000000   0.000000   0.000000
    10  H    0.000000   0.000000   0.000000   0.829887   0.000000   0.000000
    11  N    0.000000   0.000000   0.000000   0.000000   5.461481   0.000000
    12  O    0.000000   0.000000   0.000000   0.000000   0.000000   6.537194
    13  O    0.000000   0.000000   0.000000   0.000000   0.000000   0.000000
    14  C    0.000000   0.000000   0.000000   0.000000   0.000000   0.000000
    15  H    0.000000   0.000000   0.000000   0.000000   0.000000   0.000000
    16  C    0.000000   0.000000   0.000000   0.000000   0.000000   0.000000
    17  H    0.000000   0.000000   0.000000   0.000000   0.000000   0.000000
    18  C    0.000000   0.000000   0.000000   0.000000   0.000000   0.000000
    19  H    0.000000   0.000000   0.000000   0.000000   0.000000   0.000000
    20  C    0.000000   0.000000   0.000000   0.000000   0.000000   0.000000
    21  H    0.000000   0.000000   0.000000   0.000000   0.000000   0.000000
    22  C    0.000000   0.000000   0.000000   0.000000   0.000000   0.000000
    23  H    0.000000   0.000000   0.000000   0.000000   0.000000   0.000000
    24  H    0.000000   0.000000   0.000000   0.000000   0.000000   0.000000
    25  H    0.000000   0.000000   0.000000   0.000000   0.000000   0.000000
    26  C    0.000000   0.000000   0.000000   0.000000   0.000000   0.000000
    27  H    0.000000   0.000000   0.000000   0.000000   0.000000   0.000000
    28  H    0.000000   0.000000   0.000000   0.000000   0.000000   0.000000
    29  C    0.000000   0.000000   0.000000   0.000000   0.000000   0.000000
    30  C    0.000000   0.000000   0.000000   0.000000   0.000000   0.000000
    31  H    0.000000   0.000000   0.000000   0.000000   0.000000   0.000000
    32  H    0.000000   0.000000   0.000000   0.000000   0.000000   0.000000
    33  H    0.000000   0.000000   0.000000   0.000000   0.000000   0.000000
    34  O    0.000000   0.000000   0.000000   0.000000   0.000000   0.000000
    35  O    0.000000   0.000000   0.000000   0.000000   0.000000   0.000000
              13         14         15         16         17         18
     1  C    0.000000   0.000000   0.000000   0.000000   0.000000   0.000000
     2  C    0.000000   0.000000   0.000000   0.000000   0.000000   0.000000
     3  C    0.000000   0.000000   0.000000   0.000000   0.000000   0.000000
     4  C    0.000000   0.000000   0.000000   0.000000   0.000000   0.000000
     5  H    0.000000   0.000000   0.000000   0.000000   0.000000   0.000000
     6  H    0.000000   0.000000   0.000000   0.000000   0.000000   0.000000
     7  C    0.000000   0.000000   0.000000   0.000000   0.000000   0.000000
     8  H    0.000000   0.000000   0.000000   0.000000   0.000000   0.000000
     9  H    0.000000   0.000000   0.000000   0.000000   0.000000   0.000000
    10  H    0.000000   0.000000   0.000000   0.000000   0.000000   0.000000
    11  N    0.000000   0.000000   0.000000   0.000000   0.000000   0.000000
    12  O    0.000000   0.000000   0.000000   0.000000   0.000000   0.000000
    13  O    6.537601   0.000000   0.000000   0.000000   0.000000   0.000000
    14  C    0.000000   4.107899   0.000000   0.000000   0.000000   0.000000
    15  H    0.000000   0.000000   0.836949   0.000000   0.000000   0.000000
    16  C    0.000000   0.000000   0.000000   4.016787   0.000000   0.000000
    17  H    0.000000   0.000000   0.000000   0.000000   0.857747   0.000000
    18  C    0.000000   0.000000   0.000000   0.000000   0.000000   4.172735
    19  H    0.000000   0.000000   0.000000   0.000000   0.000000   0.000000
    20  C    0.000000   0.000000   0.000000   0.000000   0.000000   0.000000
    21  H    0.000000   0.000000   0.000000   0.000000   0.000000   0.000000
    22  C    0.000000   0.000000   0.000000   0.000000   0.000000   0.000000
    23  H    0.000000   0.000000   0.000000   0.000000   0.000000   0.000000
    24  H    0.000000   0.000000   0.000000   0.000000   0.000000   0.000000
    25  H    0.000000   0.000000   0.000000   0.000000   0.000000   0.000000
    26  C    0.000000   0.000000   0.000000   0.000000   0.000000   0.000000
    27  H    0.000000   0.000000   0.000000   0.000000   0.000000   0.000000
    28  H    0.000000   0.000000   0.000000   0.000000   0.000000   0.000000
    29  C    0.000000   0.000000   0.000000   0.000000   0.000000   0.000000
    30  C    0.000000   0.000000   0.000000   0.000000   0.000000   0.000000
    31  H    0.000000   0.000000   0.000000   0.000000   0.000000   0.000000
    32  H    0.000000   0.000000   0.000000   0.000000   0.000000   0.000000
    33  H    0.000000   0.000000   0.000000   0.000000   0.000000   0.000000
    34  O    0.000000   0.000000   0.000000   0.000000   0.000000   0.000000
    35  O    0.000000   0.000000   0.000000   0.000000   0.000000   0.000000
              19         20         21         22         23         24
     1  C    0.000000   0.000000   0.000000   0.000000   0.000000   0.000000
     2  C    0.000000   0.000000   0.000000   0.000000   0.000000   0.000000
     3  C    0.000000   0.000000   0.000000   0.000000   0.000000   0.000000
     4  C    0.000000   0.000000   0.000000   0.000000   0.000000   0.000000
     5  H    0.000000   0.000000   0.000000   0.000000   0.000000   0.000000
     6  H    0.000000   0.000000   0.000000   0.000000   0.000000   0.000000
     7  C    0.000000   0.000000   0.000000   0.000000   0.000000   0.000000
     8  H    0.000000   0.000000   0.000000   0.000000   0.000000   0.000000
     9  H    0.000000   0.000000   0.000000   0.000000   0.000000   0.000000
    10  H    0.000000   0.000000   0.000000   0.000000   0.000000   0.000000
    11  N    0.000000   0.000000   0.000000   0.000000   0.000000   0.000000
    12  O    0.000000   0.000000   0.000000   0.000000   0.000000   0.000000
    13  O    0.000000   0.000000   0.000000   0.000000   0.000000   0.000000
    14  C    0.000000   0.000000   0.000000   0.000000   0.000000   0.000000
    15  H    0.000000   0.000000   0.000000   0.000000   0.000000   0.000000
    16  C    0.000000   0.000000   0.000000   0.000000   0.000000   0.000000
    17  H    0.000000   0.000000   0.000000   0.000000   0.000000   0.000000
    18  C    0.000000   0.000000   0.000000   0.000000   0.000000   0.000000
    19  H    0.842788   0.000000   0.000000   0.000000   0.000000   0.000000
    20  C    0.000000   4.168877   0.000000   0.000000   0.000000   0.000000
    21  H    0.000000   0.000000   0.842978   0.000000   0.000000   0.000000
    22  C    0.000000   0.000000   0.000000   4.488526   0.000000   0.000000
    23  H    0.000000   0.000000   0.000000   0.000000   0.836713   0.000000
    24  H    0.000000   0.000000   0.000000   0.000000   0.000000   0.834972
    25  H    0.000000   0.000000   0.000000   0.000000   0.000000   0.000000
    26  C    0.000000   0.000000   0.000000   0.000000   0.000000   0.000000
    27  H    0.000000   0.000000   0.000000   0.000000   0.000000   0.000000
    28  H    0.000000   0.000000   0.000000   0.000000   0.000000   0.000000
    29  C    0.000000   0.000000   0.000000   0.000000   0.000000   0.000000
    30  C    0.000000   0.000000   0.000000   0.000000   0.000000   0.000000
    31  H    0.000000   0.000000   0.000000   0.000000   0.000000   0.000000
    32  H    0.000000   0.000000   0.000000   0.000000   0.000000   0.000000
    33  H    0.000000   0.000000   0.000000   0.000000   0.000000   0.000000
    34  O    0.000000   0.000000   0.000000   0.000000   0.000000   0.000000
    35  O    0.000000   0.000000   0.000000   0.000000   0.000000   0.000000
              25         26         27         28         29         30
     1  C    0.000000   0.000000   0.000000   0.000000   0.000000   0.000000
     2  C    0.000000   0.000000   0.000000   0.000000   0.000000   0.000000
     3  C    0.000000   0.000000   0.000000   0.000000   0.000000   0.000000
     4  C    0.000000   0.000000   0.000000   0.000000   0.000000   0.000000
     5  H    0.000000   0.000000   0.000000   0.000000   0.000000   0.000000
     6  H    0.000000   0.000000   0.000000   0.000000   0.000000   0.000000
     7  C    0.000000   0.000000   0.000000   0.000000   0.000000   0.000000
     8  H    0.000000   0.000000   0.000000   0.000000   0.000000   0.000000
     9  H    0.000000   0.000000   0.000000   0.000000   0.000000   0.000000
    10  H    0.000000   0.000000   0.000000   0.000000   0.000000   0.000000
    11  N    0.000000   0.000000   0.000000   0.000000   0.000000   0.000000
    12  O    0.000000   0.000000   0.000000   0.000000   0.000000   0.000000
    13  O    0.000000   0.000000   0.000000   0.000000   0.000000   0.000000
    14  C    0.000000   0.000000   0.000000   0.000000   0.000000   0.000000
    15  H    0.000000   0.000000   0.000000   0.000000   0.000000   0.000000
    16  C    0.000000   0.000000   0.000000   0.000000   0.000000   0.000000
    17  H    0.000000   0.000000   0.000000   0.000000   0.000000   0.000000
    18  C    0.000000   0.000000   0.000000   0.000000   0.000000   0.000000
    19  H    0.000000   0.000000   0.000000   0.000000   0.000000   0.000000
    20  C    0.000000   0.000000   0.000000   0.000000   0.000000   0.000000
    21  H    0.000000   0.000000   0.000000   0.000000   0.000000   0.000000
    22  C    0.000000   0.000000   0.000000   0.000000   0.000000   0.000000
    23  H    0.000000   0.000000   0.000000   0.000000   0.000000   0.000000
    24  H    0.000000   0.000000   0.000000   0.000000   0.000000   0.000000
    25  H    0.839806   0.000000   0.000000   0.000000   0.000000   0.000000
    26  C    0.000000   4.022206   0.000000   0.000000   0.000000   0.000000
    27  H    0.000000   0.000000   0.851287   0.000000   0.000000   0.000000
    28  H    0.000000   0.000000   0.000000   0.833652   0.000000   0.000000
    29  C    0.000000   0.000000   0.000000   0.000000   3.296079   0.000000
    30  C    0.000000   0.000000   0.000000   0.000000   0.000000   4.598011
    31  H    0.000000   0.000000   0.000000   0.000000   0.000000   0.000000
    32  H    0.000000   0.000000   0.000000   0.000000   0.000000   0.000000
    33  H    0.000000   0.000000   0.000000   0.000000   0.000000   0.000000
    34  O    0.000000   0.000000   0.000000   0.000000   0.000000   0.000000
    35  O    0.000000   0.000000   0.000000   0.000000   0.000000   0.000000
              31         32         33         34         35
     1  C    0.000000   0.000000   0.000000   0.000000   0.000000
     2  C    0.000000   0.000000   0.000000   0.000000   0.000000
     3  C    0.000000   0.000000   0.000000   0.000000   0.000000
     4  C    0.000000   0.000000   0.000000   0.000000   0.000000
     5  H    0.000000   0.000000   0.000000   0.000000   0.000000
     6  H    0.000000   0.000000   0.000000   0.000000   0.000000
     7  C    0.000000   0.000000   0.000000   0.000000   0.000000
     8  H    0.000000   0.000000   0.000000   0.000000   0.000000
     9  H    0.000000   0.000000   0.000000   0.000000   0.000000
    10  H    0.000000   0.000000   0.000000   0.000000   0.000000
    11  N    0.000000   0.000000   0.000000   0.000000   0.000000
    12  O    0.000000   0.000000   0.000000   0.000000   0.000000
    13  O    0.000000   0.000000   0.000000   0.000000   0.000000
    14  C    0.000000   0.000000   0.000000   0.000000   0.000000
    15  H    0.000000   0.000000   0.000000   0.000000   0.000000
    16  C    0.000000   0.000000   0.000000   0.000000   0.000000
    17  H    0.000000   0.000000   0.000000   0.000000   0.000000
    18  C    0.000000   0.000000   0.000000   0.000000   0.000000
    19  H    0.000000   0.000000   0.000000   0.000000   0.000000
    20  C    0.000000   0.000000   0.000000   0.000000   0.000000
    21  H    0.000000   0.000000   0.000000   0.000000   0.000000
    22  C    0.000000   0.000000   0.000000   0.000000   0.000000
    23  H    0.000000   0.000000   0.000000   0.000000   0.000000
    24  H    0.000000   0.000000   0.000000   0.000000   0.000000
    25  H    0.000000   0.000000   0.000000   0.000000   0.000000
    26  C    0.000000   0.000000   0.000000   0.000000   0.000000
    27  H    0.000000   0.000000   0.000000   0.000000   0.000000
    28  H    0.000000   0.000000   0.000000   0.000000   0.000000
    29  C    0.000000   0.000000   0.000000   0.000000   0.000000
    30  C    0.000000   0.000000   0.000000   0.000000   0.000000
    31  H    0.783506   0.000000   0.000000   0.000000   0.000000
    32  H    0.000000   0.783481   0.000000   0.000000   0.000000
    33  H    0.000000   0.000000   0.786053   0.000000   0.000000
    34  O    0.000000   0.000000   0.000000   6.583160   0.000000
    35  O    0.000000   0.000000   0.000000   0.000000   6.463806
 Mulliken charges:
               1
     1  C    0.610554
     2  C   -0.238244
     3  C   -0.225727
     4  C    0.613014
     5  H    0.194400
     6  H    0.192679
     7  C   -0.265700
     8  H    0.162747
     9  H    0.170458
    10  H    0.170113
    11  N   -0.461481
    12  O   -0.537194
    13  O   -0.537601
    14  C   -0.107899
    15  H    0.163051
    16  C   -0.016787
    17  H    0.142253
    18  C   -0.172735
    19  H    0.157212
    20  C   -0.168877
    21  H    0.157022
    22  C   -0.488526
    23  H    0.163287
    24  H    0.165028
    25  H    0.160194
    26  C   -0.022206
    27  H    0.148713
    28  H    0.166348
    29  C    0.703921
    30  C   -0.598011
    31  H    0.216494
    32  H    0.216519
    33  H    0.213947
    34  O   -0.583160
    35  O   -0.463806
 Sum of Mulliken charges =   0.00000
 Mulliken charges with hydrogens summed into heavy atoms:
               1
     1  C    0.610554
     2  C   -0.043845
     3  C   -0.033047
     4  C    0.613014
     7  C    0.237618
    11  N   -0.461481
    12  O   -0.537194
    13  O   -0.537601
    14  C    0.055153
    16  C    0.125466
    18  C   -0.015523
    20  C   -0.011855
    22  C   -0.000016
    26  C    0.292855
    29  C    0.703921
    30  C    0.048948
    34  O   -0.583160
    35  O   -0.463806
 Charge=              0.0000 electrons
 Dipole moment (field-independent basis, Debye):
    X=              2.3979    Y=              4.1357    Z=              0.1983  Tot=              4.7847
 N-N= 7.872912923294D+02 E-N=-1.444602575031D+03  KE=-6.388034751406D+01
 D1PCM: C-PCM CHGder 1st derivatives, ID1Alg=3 FixD1E=F DoIter=F DoCFld=F I1PDM=0.
 Calling FoFJK, ICntrl=      2127 FMM=F ISym2X=0 I1Cent= 0 IOpClX= 0 NMat=1 NMatS=1 NMatT=0.
 ***** Axes restored to original set *****
 -------------------------------------------------------------------
 Center     Atomic                   Forces (Hartrees/Bohr)
 Number     Number              X              Y              Z
 -------------------------------------------------------------------
      1        6           0.004351058   -0.001115431   -0.001531977
      2        6          -0.000453659   -0.000449360    0.001130895
      3        6          -0.000243519   -0.000571333    0.001086364
      4        6          -0.002207704    0.005911449   -0.001503467
      5        1           0.000109807    0.000158772   -0.000927513
      6        1          -0.000045144    0.000185625   -0.000920376
      7        6           0.000264958    0.000050871   -0.000078907
      8        1          -0.000198905   -0.000126507    0.000207875
      9        1          -0.000061501   -0.000531775   -0.000009691
     10        1          -0.000559976    0.000042456   -0.000014317
     11        7           0.000536801   -0.000704208    0.000667048
     12        8           0.001366895   -0.004065872    0.000824630
     13        8          -0.002951533    0.001051489    0.000723081
     14        6           0.000256486   -0.000376191    0.000250877
     15        1          -0.000100573    0.000634102    0.000120702
     16        6          -0.000039066    0.000267483   -0.000047999
     17        1           0.000256017    0.000058758    0.000024189
     18        6          -0.000013868   -0.000254931   -0.000271726
     19        1          -0.000002404    0.000224660    0.000259904
     20        6          -0.000043263   -0.000084027   -0.000009412
     21        1           0.000039918   -0.000034332    0.000154457
     22        6          -0.000192179   -0.000441739    0.000833414
     23        1           0.000105764    0.000005151   -0.000292137
     24        1           0.000041701    0.000167962   -0.000054788
     25        1           0.000000854    0.000088567   -0.000362306
     26        6          -0.000690873   -0.000194733   -0.000219784
     27        1          -0.000155338    0.000442751   -0.000235266
     28        1          -0.000170509    0.000318747   -0.000370538
     29        6           0.001688558    0.006103870    0.003785840
     30        6          -0.002097196   -0.000942360   -0.001645404
     31        1           0.000331070    0.000012557    0.000577201
     32        1           0.000650161    0.000230123    0.000065753
     33        1           0.000447630    0.000135990    0.000304269
     34        8          -0.001309835   -0.003997660   -0.002310916
     35        8           0.001089366   -0.002200924   -0.000209975
 -------------------------------------------------------------------
 Cartesian Forces:  Max     0.006103870 RMS     0.001370725

 GradGradGradGradGradGradGradGradGradGradGradGradGradGradGradGradGradGrad
 Berny optimization.
 FormGI is forming the generalized inverse of G from B-inverse, IUseBI=4.
 GSVD:  received Info=                   1 from GESDD.
 Internal  Forces:  Max     0.004796230 RMS     0.000602064
 Search for a local minimum.
 Step number   1 out of a maximum of  210
 All quantities printed in internal units (Hartrees-Bohrs-Radians)
 Mixed Optimization -- En-DIIS/RFO-DIIS
 Second derivative matrix not updated -- first step.
 ITU=  0
     Eigenvalues ---    0.00235   0.00298   0.00336   0.00597   0.00633
     Eigenvalues ---    0.00680   0.00713   0.00874   0.00978   0.00983
     Eigenvalues ---    0.01191   0.01206   0.01254   0.01386   0.01880
     Eigenvalues ---    0.01954   0.02879   0.03602   0.03868   0.04348
     Eigenvalues ---    0.04400   0.04762   0.04907   0.04915   0.05327
     Eigenvalues ---    0.05328   0.05462   0.05591   0.05767   0.05795
     Eigenvalues ---    0.06004   0.07034   0.07102   0.07264   0.07312
     Eigenvalues ---    0.07358   0.09701   0.11608   0.13689   0.14130
     Eigenvalues ---    0.14721   0.15999   0.15999   0.16000   0.16000
     Eigenvalues ---    0.16000   0.16000   0.16000   0.16000   0.16000
     Eigenvalues ---    0.16000   0.16000   0.17160   0.18093   0.19475
     Eigenvalues ---    0.22049   0.23568   0.24977   0.24992   0.24998
     Eigenvalues ---    0.24999   0.25000   0.25000   0.25454   0.25765
     Eigenvalues ---    0.27688   0.28126   0.28509   0.28851   0.29197
     Eigenvalues ---    0.30158   0.30905   0.31039   0.31184   0.31412
     Eigenvalues ---    0.31561   0.32188   0.33176   0.33190   0.33202
     Eigenvalues ---    0.33257   0.33299   0.33319   0.33366   0.33382
     Eigenvalues ---    0.33979   0.34159   0.34172   0.34934   0.34974
     Eigenvalues ---    0.34986   0.37734   0.38751   0.40910   0.49064
     Eigenvalues ---    0.55181   0.99699   1.00616   1.01053
 RFO step:  Lambda=-2.00826811D-04 EMin= 2.35274089D-03
 Linear search not attempted -- first point.
 Iteration  1 RMS(Cart)=  0.02000004 RMS(Int)=  0.00029614
 Iteration  2 RMS(Cart)=  0.00037703 RMS(Int)=  0.00000985
 Iteration  3 RMS(Cart)=  0.00000018 RMS(Int)=  0.00000985
 Variable       Old X    -DE/DX   Delta X   Delta X   Delta X     New X
                                 (Linear)    (Quad)   (Total)
    R1        2.89903  -0.00047   0.00000  -0.00144  -0.00144   2.89759
    R2        2.69094   0.00014   0.00000   0.00033   0.00033   2.69127
    R3        2.28393   0.00317   0.00000   0.00315   0.00315   2.28708
    R4        2.93416  -0.00048   0.00000  -0.00151  -0.00153   2.93264
    R5        2.11655   0.00090   0.00000   0.00285   0.00285   2.11940
    R6        2.92861   0.00021   0.00000   0.00077   0.00078   2.92938
    R7        2.90210  -0.00073   0.00000  -0.00265  -0.00265   2.89945
    R8        2.11933   0.00083   0.00000   0.00265   0.00265   2.12198
    R9        2.91550   0.00010   0.00000   0.00046   0.00045   2.91595
   R10        2.69085  -0.00107   0.00000  -0.00268  -0.00267   2.68818
   R11        2.28220   0.00436   0.00000   0.00432   0.00432   2.28652
   R12        2.08699   0.00021   0.00000   0.00063   0.00063   2.08762
   R13        2.08719  -0.00011   0.00000  -0.00032  -0.00032   2.08687
   R14        2.08744  -0.00012   0.00000  -0.00035  -0.00035   2.08709
   R15        2.79017   0.00078   0.00000   0.00222   0.00222   2.79239
   R16        2.12894  -0.00059   0.00000  -0.00189  -0.00189   2.12704
   R17        2.84257   0.00000   0.00000   0.00022   0.00022   2.84279
   R18        2.91040  -0.00004   0.00000  -0.00014  -0.00014   2.91026
   R19        2.12637  -0.00018   0.00000  -0.00059  -0.00059   2.12578
   R20        2.84648   0.00000   0.00000  -0.00036  -0.00035   2.84613
   R21        2.89595  -0.00021   0.00000  -0.00073  -0.00073   2.89522
   R22        2.05782   0.00034   0.00000   0.00096   0.00096   2.05879
   R23        2.52172  -0.00006   0.00000  -0.00016  -0.00015   2.52157
   R24        2.05698   0.00015   0.00000   0.00044   0.00044   2.05741
   R25        2.07040   0.00017   0.00000   0.00049   0.00049   2.07089
   R26        2.07365   0.00011   0.00000   0.00032   0.00032   2.07397
   R27        2.08414   0.00010   0.00000   0.00031   0.00031   2.08445
   R28        2.08603  -0.00002   0.00000  -0.00006  -0.00006   2.08596
   R29        2.10502   0.00039   0.00000   0.00123   0.00123   2.10625
   R30        2.74754   0.00095   0.00000   0.00253   0.00253   2.75006
   R31        2.80362  -0.00103   0.00000  -0.00302  -0.00302   2.80060
   R32        2.28760   0.00480   0.00000   0.00481   0.00481   2.29240
   R33        2.60822  -0.00143   0.00000  -0.00292  -0.00292   2.60530
   R34        2.08529   0.00045   0.00000   0.00134   0.00134   2.08663
   R35        2.08495   0.00049   0.00000   0.00146   0.00146   2.08641
   R36        2.08386   0.00025   0.00000   0.00075   0.00075   2.08461
    A1        1.88691   0.00049   0.00000   0.00228   0.00226   1.88917
    A2        2.23783   0.00037   0.00000   0.00138   0.00136   2.23918
    A3        2.15840  -0.00086   0.00000  -0.00355  -0.00357   2.15484
    A4        1.83952  -0.00032   0.00000  -0.00129  -0.00130   1.83822
    A5        1.88117   0.00011   0.00000   0.00135   0.00134   1.88251
    A6        1.90529   0.00028   0.00000   0.00339   0.00341   1.90870
    A7        1.90052  -0.00006   0.00000  -0.00306  -0.00306   1.89746
    A8        2.03762   0.00001   0.00000   0.00015   0.00013   2.03776
    A9        1.89397  -0.00002   0.00000  -0.00038  -0.00039   1.89358
   A10        1.84287  -0.00010   0.00000   0.00000   0.00000   1.84287
   A11        1.89960  -0.00010   0.00000  -0.00384  -0.00384   1.89576
   A12        2.03189   0.00002   0.00000   0.00098   0.00097   2.03287
   A13        1.87083   0.00001   0.00000   0.00086   0.00087   1.87170
   A14        1.90968   0.00010   0.00000   0.00045   0.00045   1.91013
   A15        1.90225   0.00007   0.00000   0.00151   0.00151   1.90376
   A16        1.88304   0.00076   0.00000   0.00293   0.00288   1.88592
   A17        2.23920  -0.00026   0.00000  -0.00085  -0.00092   2.23829
   A18        2.16078  -0.00049   0.00000  -0.00174  -0.00180   2.15898
   A19        1.89187  -0.00025   0.00000  -0.00106  -0.00106   1.89081
   A20        1.89122  -0.00023   0.00000  -0.00062  -0.00063   1.89059
   A21        1.93383   0.00024   0.00000   0.00216   0.00215   1.93598
   A22        1.89446  -0.00067   0.00000  -0.00548  -0.00548   1.88898
   A23        1.92566   0.00041   0.00000   0.00218   0.00218   1.92784
   A24        1.92577   0.00045   0.00000   0.00255   0.00255   1.92832
   A25        1.97084  -0.00082   0.00000  -0.00327  -0.00327   1.96757
   A26        2.15723   0.00048   0.00000   0.00206   0.00205   2.15928
   A27        2.15458   0.00033   0.00000   0.00146   0.00144   2.15602
   A28        1.88461   0.00015   0.00000   0.00106   0.00106   1.88567
   A29        1.94937   0.00009   0.00000   0.00189   0.00188   1.95125
   A30        1.91678  -0.00030   0.00000  -0.00126  -0.00126   1.91552
   A31        1.90349  -0.00017   0.00000  -0.00305  -0.00304   1.90045
   A32        1.87804  -0.00004   0.00000  -0.00137  -0.00137   1.87667
   A33        1.92955   0.00025   0.00000   0.00254   0.00255   1.93210
   A34        1.87428   0.00014   0.00000   0.00203   0.00203   1.87632
   A35        1.95164   0.00001   0.00000   0.00014   0.00013   1.95178
   A36        1.94064  -0.00015   0.00000  -0.00110  -0.00110   1.93953
   A37        1.89650  -0.00008   0.00000  -0.00044  -0.00044   1.89605
   A38        1.87796  -0.00002   0.00000  -0.00040  -0.00040   1.87757
   A39        1.92023   0.00010   0.00000  -0.00018  -0.00018   1.92005
   A40        2.01329  -0.00001   0.00000  -0.00012  -0.00012   2.01317
   A41        2.13580   0.00001   0.00000   0.00016   0.00016   2.13595
   A42        2.13400   0.00000   0.00000  -0.00005  -0.00005   2.13395
   A43        2.12888  -0.00009   0.00000   0.00051   0.00050   2.12938
   A44        2.01287   0.00009   0.00000   0.00003   0.00004   2.01291
   A45        2.14134   0.00000   0.00000  -0.00053  -0.00053   2.14082
   A46        1.95264   0.00008   0.00000  -0.00009  -0.00009   1.95256
   A47        1.93755   0.00017   0.00000   0.00188   0.00188   1.93943
   A48        1.95262   0.00024   0.00000   0.00129   0.00129   1.95391
   A49        1.87231  -0.00010   0.00000  -0.00029  -0.00029   1.87202
   A50        1.87961  -0.00033   0.00000  -0.00350  -0.00350   1.87611
   A51        1.86470  -0.00010   0.00000   0.00053   0.00052   1.86523
   A52        1.96237   0.00013   0.00000   0.00014   0.00014   1.96250
   A53        1.96414   0.00026   0.00000   0.00156   0.00156   1.96569
   A54        1.91242  -0.00056   0.00000  -0.00183  -0.00183   1.91059
   A55        1.93061  -0.00035   0.00000  -0.00385  -0.00385   1.92676
   A56        1.90867   0.00029   0.00000   0.00198   0.00198   1.91064
   A57        1.77620   0.00024   0.00000   0.00224   0.00224   1.77844
   A58        2.26189  -0.00036   0.00000  -0.00145  -0.00145   2.26044
   A59        1.90132   0.00070   0.00000   0.00279   0.00279   1.90411
   A60        2.11994  -0.00033   0.00000  -0.00132  -0.00132   2.11863
   A61        1.93711   0.00048   0.00000   0.00321   0.00320   1.94031
   A62        1.93898   0.00046   0.00000   0.00306   0.00306   1.94204
   A63        1.97055   0.00043   0.00000   0.00227   0.00227   1.97281
   A64        1.86500  -0.00035   0.00000  -0.00134  -0.00135   1.86365
   A65        1.87327  -0.00056   0.00000  -0.00380  -0.00380   1.86947
   A66        1.87408  -0.00057   0.00000  -0.00400  -0.00400   1.87008
   A67        2.06786   0.00151   0.00000   0.00602   0.00602   2.07388
    D1        0.02747   0.00009   0.00000   0.00017   0.00017   0.02764
    D2        2.05499  -0.00008   0.00000  -0.00336  -0.00336   2.05163
    D3       -2.17427   0.00011   0.00000  -0.00121  -0.00120  -2.17547
    D4       -3.10395  -0.00003   0.00000  -0.01185  -0.01186  -3.11581
    D5       -1.07643  -0.00020   0.00000  -0.01538  -0.01539  -1.09182
    D6        0.97750  -0.00001   0.00000  -0.01323  -0.01324   0.96426
    D7        0.00633  -0.00014   0.00000  -0.00840  -0.00838  -0.00206
    D8        3.11400  -0.00002   0.00000  -0.00042  -0.00041   3.11359
    D9        3.13831  -0.00002   0.00000   0.00298   0.00297   3.14129
   D10       -0.03720   0.00010   0.00000   0.01097   0.01095  -0.02625
   D11       -0.04811  -0.00001   0.00000   0.00720   0.00719  -0.04093
   D12        1.95547  -0.00010   0.00000   0.00641   0.00640   1.96187
   D13       -2.17043  -0.00007   0.00000   0.00600   0.00599  -2.16444
   D14       -2.06236   0.00005   0.00000   0.00773   0.00772  -2.05464
   D15       -0.05879  -0.00003   0.00000   0.00694   0.00694  -0.05184
   D16        2.09850  -0.00001   0.00000   0.00653   0.00653   2.10503
   D17        2.06965   0.00011   0.00000   0.01067   0.01067   2.08031
   D18       -2.20996   0.00003   0.00000   0.00988   0.00988  -2.20008
   D19       -0.05267   0.00005   0.00000   0.00947   0.00947  -0.04320
   D20       -0.52819  -0.00018   0.00000  -0.00392  -0.00393  -0.53212
   D21        1.55075  -0.00019   0.00000  -0.00310  -0.00310   1.54765
   D22       -2.57836  -0.00016   0.00000  -0.00405  -0.00405  -2.58241
   D23       -2.61098   0.00001   0.00000  -0.00496  -0.00496  -2.61594
   D24       -0.53204   0.00001   0.00000  -0.00413  -0.00413  -0.53617
   D25        1.62204   0.00003   0.00000  -0.00508  -0.00508   1.61695
   D26        1.51766   0.00009   0.00000  -0.00064  -0.00064   1.51702
   D27       -2.68658   0.00009   0.00000   0.00018   0.00018  -2.68640
   D28       -0.53251   0.00011   0.00000  -0.00077  -0.00077  -0.53328
   D29        0.05301  -0.00003   0.00000  -0.01205  -0.01207   0.04095
   D30       -3.10744   0.00005   0.00000   0.00861   0.00861  -3.09883
   D31       -1.97030   0.00013   0.00000  -0.00807  -0.00808  -1.97838
   D32        1.15243   0.00021   0.00000   0.01260   0.01260   1.16503
   D33        2.25254  -0.00001   0.00000  -0.01059  -0.01061   2.24193
   D34       -0.90792   0.00006   0.00000   0.01008   0.01007  -0.89785
   D35        2.70297  -0.00009   0.00000  -0.01150  -0.01150   2.69147
   D36        0.61017  -0.00004   0.00000  -0.00957  -0.00957   0.60061
   D37       -1.53707  -0.00021   0.00000  -0.01322  -0.01322  -1.55030
   D38        0.61632  -0.00004   0.00000  -0.01252  -0.01252   0.60380
   D39       -1.47648   0.00001   0.00000  -0.01059  -0.01058  -1.48706
   D40        2.65946  -0.00016   0.00000  -0.01424  -0.01424   2.64522
   D41       -1.42430  -0.00016   0.00000  -0.01467  -0.01468  -1.43897
   D42        2.76609  -0.00010   0.00000  -0.01274  -0.01274   2.75335
   D43        0.61885  -0.00028   0.00000  -0.01640  -0.01640   0.60245
   D44       -0.03816   0.00011   0.00000   0.01308   0.01307  -0.02510
   D45        3.13729  -0.00002   0.00000   0.00510   0.00510  -3.14080
   D46        3.12124   0.00003   0.00000  -0.00644  -0.00646   3.11478
   D47        0.01351  -0.00009   0.00000  -0.01443  -0.01443  -0.00092
   D48       -1.55730  -0.00004   0.00000  -0.00378  -0.00378  -1.56108
   D49        1.54685   0.00008   0.00000   0.00495   0.00495   1.55181
   D50        0.53799   0.00008   0.00000  -0.00228  -0.00228   0.53571
   D51       -2.64104   0.00019   0.00000   0.00645   0.00646  -2.63458
   D52        2.63133  -0.00020   0.00000  -0.00606  -0.00607   2.62526
   D53       -0.54770  -0.00009   0.00000   0.00267   0.00267  -0.54503
   D54       -0.61677   0.00004   0.00000   0.00453   0.00453  -0.61224
   D55        2.53929   0.00007   0.00000   0.00335   0.00335   2.54265
   D56       -2.69843  -0.00010   0.00000   0.00402   0.00402  -2.69440
   D57        0.45764  -0.00007   0.00000   0.00285   0.00285   0.46049
   D58        1.52320  -0.00010   0.00000   0.00604   0.00605   1.52925
   D59       -1.60392  -0.00007   0.00000   0.00487   0.00487  -1.59905
   D60       -0.92872   0.00010   0.00000   0.00393   0.00393  -0.92479
   D61        1.26543  -0.00006   0.00000   0.00010   0.00010   1.26553
   D62       -3.05509   0.00005   0.00000   0.00261   0.00261  -3.05248
   D63        1.11853   0.00010   0.00000   0.00374   0.00374   1.12227
   D64       -2.97050  -0.00006   0.00000  -0.00009  -0.00009  -2.97060
   D65       -1.00784   0.00005   0.00000   0.00241   0.00242  -1.00542
   D66       -3.08760   0.00002   0.00000   0.00067   0.00068  -3.08692
   D67       -0.89345  -0.00014   0.00000  -0.00316  -0.00315  -0.89660
   D68        1.06922  -0.00004   0.00000  -0.00065  -0.00065   1.06857
   D69       -2.55825  -0.00010   0.00000  -0.00175  -0.00176  -2.56000
   D70        0.59874  -0.00006   0.00000  -0.00137  -0.00138   0.59736
   D71       -0.49248   0.00003   0.00000   0.00055   0.00055  -0.49193
   D72        2.66450   0.00007   0.00000   0.00093   0.00093   2.66543
   D73        1.55938   0.00002   0.00000  -0.00029  -0.00029   1.55909
[...]
 7,0.00001961,0.00001795,0.00006681,-0.00000648,0.00000895,0.00000532,-
 0.00000431,0.00000163,-0.00000618,0.00000102,-0.00000664,-0.00000130,-
 0.00000012,0.00000635,0.00000369,-0.00009756,-0.00003993,0.00005208,0.
 00002142,-0.00017294,0.00003161,-0.00008316,0.00002329,0.00002078,-0.0
 0068346,0.00006382,-0.00044138,0.00014243,0.00012455,-0.00008027,0.000
 00823,0.00001336,0.00004194,0.00002080,-0.00000993,-0.00001082,-0.0000
 2297,0.00003974,0.00005524,-0.00000062,-0.00002397,-0.00004278,-0.0000
 5404,-0.00007047,-0.00003753,0.00004339,0.00001789,-0.00001247,-0.0000
 6691,0.00009908,-0.00004215,0.00000556,-0.00001046,0.00001508,-0.00000
 146,-0.00002688,-0.00000441,0.00001993,-0.00004773,0.00001867,-0.00062
 320,0.00067191,0.00485122,0.00048204,-0.00011422,0.00056021,-0.0001817
 7,-0.00030321,-0.00012763,-0.06199441,-0.01582775,-0.11276273,0.044022
 95,0.01448355,0.40013437,0.00001996,-0.00001800,-0.00000052,-0.0000042
 4,0.00000116,-0.00001002,-0.00004012,-0.00001852,0.00000733,0.00003535
 ,0.00000367,-0.00001143,0.00000079,-0.00000162,0.00000454,0.00000338,0
 .00000308,0.00000849,-0.00000126,0.00000199,-0.00000042,0.00000022,0.0
 0000001,-0.00000030,0.00000066,-0.00000101,0.00000011,0.00000061,0.000
 00085,0.00000072,-0.00002417,0.00001081,0.00000558,-0.00001592,0.00000
 060,-0.00000281,-0.00001513,0.00000815,0.00000234,-0.00005441,0.000017
 52,-0.00007746,-0.00001056,0.00001411,0.00000269,-0.00000339,0.0000011
 5,0.00000226,0.00000205,-0.00000088,-0.00000174,-0.00000314,0.00000525
 ,-0.00000074,0.00000108,-0.00000316,-0.00000273,0.00000215,-0.00000050
 ,-0.00000493,0.00003318,-0.00001436,0.00001166,-0.00001066,0.00001399,
 -0.00000464,0.00000017,-0.00000122,0.00000241,-0.00000011,-0.00000290,
 -0.00000050,0.00000454,-0.00000882,0.00000230,-0.00041547,0.00060874,0
 .00071684,0.00010790,0.00000107,0.00010115,-0.00011999,-0.00004190,-0.
 00008785,-0.00871110,0.00806754,-0.02875710,-0.02873325,0.00147875,-0.
 00342333,0.03824772,0.00003802,-0.00000697,-0.00000963,-0.00001437,-0.
 00000584,-0.00001366,-0.00004241,-0.00001760,0.00000800,0.00003547,0.0
 0006299,-0.00002862,0.00000152,-0.00000257,0.00000909,0.00000765,0.000
 00551,0.00001748,-0.00000269,0.00000399,0.00000217,-0.00000070,0.00000
 018,-0.00000200,0.00000072,-0.00000160,-0.00000024,0.00000033,0.000001
 23,0.00000162,-0.00003065,-0.00000707,0.00001212,-0.00000016,-0.000039
 48,0.00000591,-0.00002644,0.00000807,0.00000659,-0.00001973,-0.0000127
 2,-0.00001628,0.00003315,0.00003146,-0.00001118,0.00000059,0.00000692,
 0.00001478,0.00000554,-0.00000418,-0.00000247,-0.00001313,0.00001507,0
 .00002270,-0.00000196,-0.00000373,-0.00001556,-0.00000917,-0.00002336,
 -0.00000545,-0.00001255,0.00000176,-0.00001931,-0.00001789,0.00002938,
 -0.00000507,0.00000327,-0.00000316,0.00000393,-0.00000244,-0.00000743,
 -0.00000307,0.00000757,-0.00001679,0.00000127,0.00036197,0.00037359,0.
 00026181,-0.00000332,0.00000543,0.00008949,-0.00007498,-0.00009977,-0.
 00003722,0.00622725,0.00680951,0.00250911,0.00204510,-0.08098284,0.081
 85394,-0.00293327,0.09121708,-0.00005146,0.00001082,0.00001014,0.00001
 895,0.00000640,0.00002594,0.00005152,0.00002574,0.00000507,-0.00004709
 ,-0.00008530,0.00003333,-0.00000153,0.00000463,-0.00001358,-0.00000548
 ,-0.00000785,-0.00002390,0.00000307,-0.00000372,-0.00000151,0.00000094
 ,-0.00000028,0.00000199,-0.00000083,0.00000244,0.00000037,-0.00000031,
 -0.00000214,-0.00000173,0.00003991,0.00000825,-0.00001599,0.00000014,0
 .00005372,-0.00000557,0.00003428,-0.00001075,-0.00000748,-0.00001606,0
 .00001775,0.00000432,-0.00004734,-0.00003528,0.00000507,-0.00000517,-0
 .00000870,-0.00002324,-0.00000871,0.00000517,0.00000448,0.00001243,-0.
 00001707,-0.00002464,-0.00000007,0.00000985,0.00002085,0.00003010,0.00
 002635,0.00001085,-0.00002130,-0.00000125,0.00001046,0.00002739,-0.000
 04098,0.00001997,-0.00000300,0.00000381,-0.00000659,0.00000151,0.00001
 156,0.00000174,-0.00000819,0.00002094,-0.00000751,-0.00060354,-0.00034
 480,0.00003585,0.00005906,-0.00001740,-0.00008663,0.00010259,0.0001383
 9,0.00003507,-0.02006160,0.00678390,-0.02732737,-0.00540893,0.08050690
 ,-0.16161303,0.01488799,-0.10001209,0.20087395,-0.00003423,0.00000153,
 0.00001053,0.00001292,0.00000691,0.00001123,0.00005064,0.00002756,-0.0
 0001840,-0.00002188,-0.00007646,0.00003330,-0.00000138,0.00000243,-0.0
 0000763,-0.00000785,-0.00000423,-0.00001698,0.00000303,-0.00000363,-0.
 00000252,0.00000122,-0.00000035,0.00000211,-0.00000044,0.00000185,0.00
 000018,-0.00000006,-0.00000117,-0.00000126,0.00002531,0.00001464,-0.00
 001330,-0.00000779,0.00005074,-0.00001070,0.00002306,-0.00000537,-0.00
 000679,0.00012405,-0.00000779,0.00006203,-0.00005209,-0.00002742,0.000
 02207,-0.00000262,-0.00000475,-0.00001357,-0.00000555,0.00000386,0.000
 00179,0.00000847,-0.00001341,-0.00002595,0.00000249,0.00000495,0.00001
 518,0.00001295,0.00002368,0.00000914,0.00001143,-0.00000831,0.00001821
 ,0.00001402,-0.00002667,0.00000437,-0.00000298,0.00000316,-0.00000295,
 0.00000236,0.00000727,0.00000299,-0.00000550,0.00001399,-0.00000097,-0
 .00023144,0.00024410,-0.00061992,-0.00001575,0.00001794,-0.00009237,-0
 .00003416,0.00008810,-0.00003306,-0.04502482,0.00053998,0.00191554,-0.
 14943960,0.03540937,0.07763259,-0.00155104,-0.00114032,0.00880139,0.19
 432515,0.00001758,0.00000624,-0.00000615,-0.00000851,-0.00000482,-0.00
 000709,-0.00001920,-0.00000987,0.00000202,0.00000852,0.00004359,-0.000
 01519,0.00000073,-0.00000116,0.00000461,0.00000316,0.00000272,0.000008
 24,-0.00000033,0.00000105,0.00000111,-0.00000086,0.00000045,-0.0000012
 3,0.00000019,-0.00000044,-0.00000011,-0.00000013,0.00000071,0.00000075
 ,-0.00000953,-0.00001123,0.00000599,0.00000597,-0.00002728,0.00000563,
 -0.00001145,0.00000128,0.00000294,0.00000082,-0.00001473,0.00000354,0.
 00001312,0.00002269,-0.00000881,0.00000182,0.00000569,0.00000831,0.000
 00321,-0.00000201,-0.00000161,-0.00000615,0.00000590,0.00001051,0.0000
 0083,-0.00000176,-0.00000758,-0.00001130,-0.00001498,-0.00000061,0.000
 00304,0.00000843,-0.00000928,-0.00001217,0.00001472,-0.00000749,0.0000
 0137,-0.00000163,0.00000265,0.00000004,-0.00000431,0.00000010,0.000004
 17,-0.00000816,0.00000314,0.00028409,0.00017937,0.00006725,-0.00000894
 ,0.00000002,0.00004034,-0.00003489,-0.00004822,-0.00000546,-0.00117666
 ,0.00607988,0.00368657,0.03624124,-0.04159246,-0.02527973,-0.00642496,
 0.00438355,0.00711632,-0.04287220,0.04308668,0.00004755,-0.00000907,-0
 .00000944,-0.00001520,-0.00000662,-0.00001803,-0.00003701,-0.00002011,
 -0.00000279,0.00004373,0.00006866,-0.00002914,0.00000236,-0.00000439,0
 .00001266,0.00000941,0.00000779,0.00002183,-0.00000374,0.00000465,0.00
 000156,-0.00000096,0.00000034,-0.00000176,0.00000123,-0.00000219,0.000
 00053,0.00000060,0.00000141,0.00000229,-0.00003737,-0.00000966,0.00001
 204,-0.00000605,-0.00004358,0.00000533,-0.00003278,0.00000953,0.000007
 03,0.00009333,-0.00002139,0.00001335,0.00002017,0.00003618,-0.00000507
 ,0.00000440,0.00001091,0.00002182,0.00000788,-0.00000579,-0.00000285,-
 0.00001119,0.00001238,0.00003100,-0.00000004,-0.00000693,-0.00002061,-
 0.00002802,-0.00001679,-0.00001157,0.00000642,0.00000541,-0.00001363,-
 0.00002618,0.00003965,-0.00001484,0.00000394,-0.00000359,0.00000653,-0
 .00000284,-0.00001060,-0.00000223,0.00001015,-0.00002345,0.00000465,0.
 00053185,0.00099530,-0.00023295,-0.00003965,0.00003235,0.00009322,-0.0
 0022880,-0.00014134,-0.00011726,-0.00758420,0.00140673,0.00983539,0.08
 006892,-0.02464906,-0.08058117,0.01568770,0.00020266,-0.01678832,-0.09
 190890,0.03010765,0.09319170,-0.00003771,0.00001105,0.00000969,0.00001
 135,0.00000541,0.00000979,0.00004633,0.00002272,-0.00001577,-0.0000331
 7,-0.00005370,0.00003022,-0.00000182,0.00000323,-0.00000925,-0.0000106
 5,-0.00000566,-0.00001718,0.00000416,-0.00000479,-0.00000233,0.0000006
 4,-0.00000003,0.00000203,-0.00000083,0.00000192,0.00000002,-0.00000054
 ,-0.00000083,-0.00000157,0.00003178,0.00000529,-0.00001174,0.00000349,
 0.00003379,-0.00000866,0.00002694,-0.00000901,-0.00000702,0.00001024,0
 .00001492,0.00003619,0.00000369,-0.00003528,0.00001014,0.00000056,-0.0
 0000565,-0.00001290,-0.00000526,0.00000444,0.00000151,0.00001118,-0.00
 001447,-0.00002648,0.00000385,0.00000340,0.00001516,0.00001752,0.00002
 469,0.00000453,0.00003039,-0.00000294,0.00001920,0.00001264,-0.0000323
 2,0.00000072,-0.00000330,0.00000373,-0.00000349,0.00000463,0.00000716,
 0.00000404,-0.00000542,0.00001936,0.00000102,-0.00043682,-0.00033965,-
 0.00014639,0.00006619,-0.00004110,-0.00005396,0.00012273,0.00012774,0.
 00006331,-0.00937609,-0.02702299,-0.01290212,-0.03343375,-0.01066178,-
 0.00311587,0.00360417,-0.00108527,0.00030403,-0.00050054,0.01539377,0.
 00608844,0.04301781,-0.00006308,0.00000382,0.00001636,0.00002111,0.000
 01196,0.00002622,0.00007039,0.00004593,-0.00000984,-0.00004439,-0.0001
 1870,0.00004984,-0.00000372,0.00000532,-0.00001541,-0.00001212,-0.0000
 1175,-0.00002935,0.00000358,-0.00000490,-0.00000217,0.00000211,-0.0000
 0073,0.00000280,-0.00000109,0.00000325,-0.00000013,-0.00000016,-0.0000
 0259,-0.00000259,0.00004697,0.00002347,-0.00002191,-0.00000298,0.00007
 737,-0.00001314,0.00004216,-0.00000922,-0.00001051,-0.00000336,0.00001
 422,0.00005042,-0.00003956,-0.00005254,0.00001768,-0.00001295,-0.00001
 215,-0.00002756,-0.00001148,0.00000705,0.00000387,0.00000919,-0.000010
 66,-0.00004392,-0.00000185,0.00001104,0.00002808,0.00003848,0.00002279
 ,0.00001052,-0.00000323,-0.00001810,0.00002079,0.00004699,-0.00005227,
 0.00002293,-0.00000571,0.00000587,-0.00000858,-0.00000230,0.00001631,0
 .00000251,-0.00001791,0.00002709,-0.00001003,-0.00059344,-0.00073787,-
 0.00026623,0.00001977,-0.00002849,-0.00014931,0.00020852,0.00017667,0.
 00010717,-0.01683322,-0.01206121,-0.01274729,-0.01504673,-0.20240598,-
 0.04317395,-0.00023874,-0.01976891,0.00531349,0.00661601,-0.01088681,-
 0.00724663,0.02347435,0.24428573,-0.00003457,0.00000395,0.00000833,0.0
 0001253,0.00000539,0.00001694,0.00004681,0.00002711,-0.00000420,-0.000
 02800,-0.00005911,0.00002698,-0.00000142,0.00000327,-0.00000906,-0.000
 00549,-0.00000598,-0.00001528,0.00000153,-0.00000208,-0.00000082,0.000
 00102,-0.00000047,0.00000162,-0.00000051,0.00000154,0.00000025,-0.0000
 0012,-0.00000152,-0.00000104,0.00002603,0.00000814,-0.00001211,0.00000
 018,0.00003597,-0.00000709,0.00002305,-0.00000636,-0.00000523,0.000001
 31,0.00000801,0.00003662,-0.00000007,-0.00003423,0.00000723,-0.0000045
 8,-0.00000619,-0.00001263,-0.00000617,0.00000299,0.00000312,0.00000433
 ,-0.00000788,-0.00001580,-0.00000206,0.00000682,0.00001219,0.00002629,
 0.00001871,0.00000013,-0.00002113,-0.00001075,0.00000382,0.00002353,-0
 .00003063,0.00001639,-0.00000132,0.00000330,-0.00000510,-0.00000075,0.
 00000862,-0.00000023,-0.00000676,0.00001586,-0.00000753,-0.00033388,-0
 .00035079,-0.00016723,0.00003823,-0.00002506,-0.00006720,0.00011649,0.
 00010599,0.00004904,-0.01095050,-0.01834781,-0.00616151,-0.00387639,-0
 .04074524,-0.04207723,0.00032195,0.01640353,0.00246535,0.00443520,-0.0
 1378809,-0.00233424,0.01185317,0.05660435,0.04865656,0.00023829,-0.000
 04268,-0.00005805,-0.00014658,-0.00002565,-0.00011857,-0.00005670,0.00
 014263,-0.00012961,0.00041414,0.00050236,-0.00019720,-0.00000042,-0.00
 001493,0.00005922,0.00003947,-0.00001580,0.00014533,-0.00002348,0.0000
 2367,0.00001545,-0.00000908,0.00000278,-0.00001437,0.00000258,-0.00001
 564,-0.00000114,0.00000036,0.00000968,0.00000830,-0.00020723,-0.000050
 37,0.00009590,-0.00000168,-0.00034330,0.00006689,-0.00015871,0.0000448
 0,0.00004210,-0.00198598,0.00126023,0.00035589,0.00119148,-0.00071889,
 -0.00035693,0.00001095,-0.00000090,0.00007888,0.00003694,-0.00001740,-
 0.00001387,-0.00003353,0.00007095,0.00021898,-0.00002436,-0.00003443,-
 0.00008553,0.00005628,0.00003156,-0.00023693,-0.00002289,0.00004054,-0
 .00007454,-0.00006492,0.00009169,-0.00006736,0.00001369,-0.00000853,0.
 00001643,0.00000048,-0.00003312,-0.00000743,0.00001686,-0.00003566,0.0
 0001947,-0.00307574,0.00031041,-0.00040819,0.00032078,-0.00082484,0.00
 028989,0.00104306,0.00002613,0.00077230,-0.12712648,-0.17599528,-0.078
 60879,-0.01940229,-0.03265873,-0.02743272,-0.00042898,-0.00151530,0.00
 101100,0.00212307,-0.00049599,-0.00041771,-0.00265906,0.00142320,-0.00
 164335,0.13066568,-0.00065953,0.00022876,0.00014631,0.00021250,0.00008
 756,0.00019150,0.00050729,0.00026327,-0.00014290,-0.00079503,-0.000478
 33,0.00042905,-0.00002482,0.00005506,-0.00014472,-0.00011701,-0.000036
 30,-0.00021850,0.00005232,-0.00007069,-0.00002670,0.00000776,-0.000002
 09,0.00003119,-0.00001800,0.00002643,-0.00000077,-0.00001204,-0.000014
 42,-0.00002620,0.00058691,-0.00005936,-0.00017675,0.00027910,0.0002331
 9,-0.00008277,0.00046051,-0.00017133,-0.00010740,0.00051830,0.00056835
 ,-0.00028203,0.00124709,-0.00104867,-0.00011136,-0.00007084,-0.0001532
 3,-0.00029654,-0.00010332,0.00007537,0.00004348,0.00019851,-0.00021102
 ,-0.00033812,0.00000368,0.00009758,0.00028146,0.00030614,0.00047368,0.
 00005979,-0.00002146,-0.00007640,0.00028059,0.00030209,-0.00049982,0.0
 0016556,-0.00004689,0.00005085,-0.00007043,0.00004025,0.00013699,0.000
 03615,-0.00012612,0.00028232,-0.00005212,-0.00880956,-0.00650496,-0.00
 376903,0.00012744,-0.00028666,-0.00087604,0.00044164,0.00177656,-0.000
 00772,-0.20691329,-0.51246686,-0.21669667,-0.02684983,-0.01664967,-0.0
 2250099,0.00017468,-0.00201046,0.00125367,0.00198486,-0.00132554,-0.00
 068847,-0.00067146,0.00179595,-0.00021880,0.19703019,0.65854710,-0.000
 18067,0.00002605,0.00004926,0.00006350,0.00003576,0.00003316,0.0001928
 4,0.00006218,-0.00007781,-0.00019030,-0.00016309,0.00012799,-0.0000100
 5,0.00001565,-0.00003566,-0.00000142,-0.00000793,-0.00005731,0.0000143
 1,-0.00001990,-0.00000651,0.00000371,-0.00000142,0.00000876,-0.0000054
 2,0.00000718,-0.00000221,-0.00000269,-0.00000296,-0.00000889,0.0001368
 3,0.00002253,-0.00004211,0.00007650,0.00008285,-0.00004995,0.00012749,
 -0.00003855,-0.00003188,0.00074490,-0.00010977,0.00029365,0.00011674,0
 .00002091,-0.00018331,-0.00002389,-0.00005007,-0.00009034,-0.00002956,
 0.00002186,0.00001033,0.00005338,-0.00005246,-0.00010774,0.00000581,0.
 00002879,0.00008026,0.00001839,0.00013427,0.00007751,0.00000625,-0.000
 02781,0.00010542,0.00006376,-0.00012787,0.00004282,-0.00001555,0.00001
 449,-0.00001547,0.00001218,0.00003581,0.00000752,-0.00002127,0.0000686
 9,-0.00001104,-0.00280805,-0.00059797,-0.00257791,0.00030831,-0.000809
 72,-0.00039956,0.00079273,0.00042828,0.00041416,-0.08501846,-0.2002975
 2,-0.14875425,-0.02617317,-0.02578512,-0.00394087,0.00129930,-0.000625
 04,0.00186482,0.00014540,-0.00115839,-0.00140702,-0.00208768,0.0010613
 3,-0.00024860,0.10366279,0.25175017,0.13670009,0.00187445,-0.00056491,
 -0.00040433,-0.00048721,-0.00031753,-0.00068256,-0.00442647,-0.0029661
 0,0.00249827,0.00151940,0.00281462,-0.00186671,0.00007941,-0.00015622,
 0.00043767,0.00043197,0.00028011,0.00109464,-0.00016514,0.00022903,0.0
 0009757,-0.00004522,0.00001690,-0.00009503,0.00003651,-0.00010168,0.00
 000673,0.00002559,0.00006836,0.00007820,-0.00172805,-0.00030231,0.0006
 8777,-0.00026806,-0.00173567,0.00041258,-0.00132238,0.00043669,0.00031
 087,-0.04384128,-0.01124437,-0.00444563,-0.00024458,0.00203034,-0.0007
 3414,0.00012260,0.00019365,0.00067265,0.00027207,-0.00014771,-0.000099
 30,-0.00043438,0.00054059,0.00086366,-0.00005098,-0.00027892,-0.000636
 38,-0.00172416,-0.00103016,0.00012092,-0.00013428,0.00025463,-0.000420
 70,-0.00046638,0.00095409,-0.00045841,0.00012196,-0.00012032,0.0001291
 7,-0.00003330,-0.00028923,-0.00005646,0.00033362,-0.00068474,0.0001369
 4,-0.14659899,-0.02578481,-0.07681610,-0.01412285,-0.00345577,-0.01505
 834,-0.02073102,0.01334576,-0.01387675,-0.10424028,0.05783361,-0.02308
 277,-0.04622254,0.02578265,-0.02455226,-0.00192090,-0.00182147,0.00090
 449,0.00019983,-0.00089057,-0.00224762,-0.00052507,0.00091539,-0.00001
 448,0.01925412,0.04076004,0.00872419,0.36546107,-0.00076055,0.00027127
 ,0.00016391,0.00018572,0.00003852,0.00021205,-0.00056363,0.00006354,0.
 00011881,-0.00087065,-0.00060922,0.00037936,-0.00004851,0.00007798,-0.
 00019916,-0.00022336,-0.00014187,-0.00020434,0.00005574,-0.00007285,-0
 .00001870,0.00000717,-0.00000305,0.00003334,-0.00002173,0.00003125,-0.
 00000003,-0.00001315,-0.00001723,-0.00002826,0.00063914,-0.00002096,-0
 .00019045,0.00025740,0.00040475,-0.00009681,0.00053886,-0.00019905,-0.
 00011891,-0.01154643,0.00174933,-0.00191750,0.00059071,-0.00075976,-0.
 00006203,-0.00003700,-0.00017963,-0.00026042,-0.00012195,0.00008877,0.
 00005041,0.00013233,-0.00016802,-0.00042660,-0.00001072,0.00009840,0.0
 0029980,0.00035087,0.00061521,-0.00006161,-0.00004282,-0.00019680,0.00
 020315,0.00055748,-0.00086939,0.00017015,-0.00005241,0.00007744,-0.000
 13010,0.00005430,0.00018601,0.00004547,-0.00030177,0.00057066,-0.00008
 380,-0.02459415,-0.06050512,-0.01719962,-0.01001807,0.00114154,-0.0111
 4879,0.02912282,-0.00411384,0.01769424,0.08010775,-0.18047459,0.014484
 08,0.02009895,0.00318955,0.01009381,-0.00070332,0.00005890,-0.00073253
 ,-0.00087097,0.00011240,-0.00003188,0.00082995,-0.00035073,0.00037735,
 0.01183553,-0.12263467,-0.02394262,-0.09456463,0.36253776,0.00027351,-
 0.00008562,-0.00003910,-0.00009495,0.00001577,-0.00005235,0.00126058,0
 .00042140,0.00023738,0.00040256,0.00038577,0.00002698,0.00001853,-0.00
 002198,0.00009193,0.00020504,0.00011872,0.00008932,-0.00003190,0.00003
 519,-0.00000090,-0.00000313,0.00000384,-0.00001185,0.00000594,-0.00001
 557,0.00000220,0.00000461,0.00001279,0.00001383,-0.00028846,-0.0000459
 3,0.00006616,-0.00007115,-0.00033063,-0.00000639,-0.00019924,0.0000701
 4,0.00003841,0.00110269,-0.00221226,0.00780390,-0.00036303,0.00026623,
 0.00006508,-0.00008800,-0.00007778,0.00000115,0.00003013,-0.00000998,-
 0.00001102,0.00004585,0.00009031,0.00016092,0.00001550,0.00001035,-0.0
 0004523,0.00099466,-0.00051228,-0.00067467,-0.00008836,0.00006288,-0.0
 0003952,-0.00005715,0.00015709,-0.00000982,0.00000800,-0.00002389,0.00
 002570,-0.00000158,-0.00003261,-0.00001605,0.00015408,-0.00021943,-0.0
 0001444,-0.06847843,-0.02061144,-0.08575173,-0.02966888,-0.00440561,-0
 .02277580,-0.01190544,0.00830935,-0.00400715,-0.01782454,0.00186459,-0
 .04802315,-0.02568531,0.01304417,-0.00395773,-0.00067886,-0.00061944,0
 .00051766,-0.00034807,-0.00078088,-0.00166807,-0.00003097,0.00044045,-
 0.00015248,0.00301390,-0.00783259,0.01823233,0.14837064,0.01252860,0.1
 3988449\\-0.00000542,0.00000963,0.00000384,0.00000094,-0.00000496,-0.0
 0001047,-0.00000275,0.00000371,0.00000756,-0.00000854,-0.00000005,0.00
 000197,0.00000101,-0.00000285,0.00000016,-0.00000168,-0.00000456,-0.00
 000353,0.00000010,0.00000023,0.00000709,0.00000003,0.00000214,0.000002
 58,0.00000125,0.00000075,0.00000216,-0.00000062,-0.00000112,0.00000450
 ,0.00000700,-0.00000359,0.00000039,0.00000113,-0.00000181,0.00000520,0
 .00000215,-0.00000456,-0.00000055,0.00000589,0.00000384,-0.00000371,0.
 00000192,0.00000080,0.00000200,-0.00000244,-0.00000158,0.00000319,0.00
 000027,0.00000118,-0.00000017,0.00000138,-0.00000108,-0.00000492,0.000
 00151,0.00000451,-0.00000149,0.00000339,0.00000057,0.00000365,-0.00000
 138,0.00000214,-0.00000110,-0.00000095,0.00000577,-0.00000306,0.000001
 14,-0.00000258,-0.00000514,-0.00000228,-0.00000012,-0.00000570,0.00000
 199,-0.00000350,-0.00000460,-0.00000684,-0.00000478,-0.00000087,-0.000
 00020,-0.00000304,0.00000218,-0.00000152,0.00000177,-0.00000130,-0.000
 01334,0.00000820,-0.00000546,0.00001125,0.00000417,0.00000628,-0.00000
 087,0.00000162,-0.00000059,-0.00000151,0.00000002,-0.00000076,-0.00000
 119,-0.00000035,-0.00000298,0.00000188,-0.00000362,0.00000249,0.000007
 28,-0.00000690,0.00000118\\\@


 SOME THINGS ARE EASY, THEY ARE ONLY HARD TO DO.
            -- A. EINSTEIN TO J. O. HIRSCHFELDER
 THE ONLY TROUBLE WITH A SURE THING IS THE UNCERTAINTY.
     -- FROM A TEABAG (BELONGING TO W.H.?)
 Job cpu time:       0 days  0 hours  0 minutes 48.1 seconds.
 File lengths (MBytes):  RWF=    170 Int=      0 D2E=      0 Chk=     13 Scr=      1
 Normal termination of Gaussian 09 at Wed Aug 12 16:43:11 2020.
