 Entering Gaussian System, Link 0=g09
 Input=freq_TS_2H2O_claisen_PM6_toluene_water_1.com
 Output=freq_TS_2H2O_claisen_PM6_toluene_water_1.log
 Initial command:
 /apps/applications/gaussian/G09.D01/2/default/g09/l1.exe "/local/707378.1.40core-192G.q/Gau-265485.inp" -scrdir="/local/707378.1.40core-192G.q/"
 Entering Link 1 = /apps/applications/gaussian/G09.D01/2/default/g09/l1.exe PID=    265486.
  
 Copyright (c) 1988,1990,1992,1993,1995,1998,2003,2009,2013,
            Gaussian, Inc.  All Rights Reserved.
  
 This is part of the Gaussian(R) 09 program.  It is based on
 the Gaussian(R) 03 system (copyright 2003, Gaussian, Inc.),
 the Gaussian(R) 98 system (copyright 1998, Gaussian, Inc.),
 the Gaussian(R) 94 system (copyright 1995, Gaussian, Inc.),
 the Gaussian 92(TM) system (copyright 1992, Gaussian, Inc.),
 the Gaussian 90(TM) system (copyright 1990, Gaussian, Inc.),
 the Gaussian 88(TM) system (copyright 1988, Gaussian, Inc.),
 the Gaussian 86(TM) system (copyright 1986, Carnegie Mellon
 University), and the Gaussian 82(TM) system (copyright 1983,
 Carnegie Mellon University). Gaussian is a federally registered
 trademark of Gaussian, Inc.
  
 This software contains proprietary and confidential information,
 including trade secrets, belonging to Gaussian, Inc.
  
 This software is provided under written license and may be
 used, copied, transmitted, or stored only in accord with that
 written license.
  
 The following legend is applicable only to US Government
 contracts under FAR:
  
                    RESTRICTED RIGHTS LEGEND
  
 Use, reproduction and disclosure by the US Government is
 subject to restrictions as set forth in subparagraphs (a)
 and (c) of the Commercial Computer Software - Restricted
 Rights clause in FAR 52.227-19.
  
 Gaussian, Inc.
 340 Quinnipiac St., Bldg. 40, Wallingford CT 06492
  
  
 ---------------------------------------------------------------
 Warning -- This program may not be used in any manner that
 competes with the business of Gaussian, Inc. or will provide
 assistance to any competitor of Gaussian, Inc.  The licensee
 of this program is prohibited from giving any competitor of
 Gaussian, Inc. access to this program.  By using this program,
 the user acknowledges that Gaussian, Inc. is engaged in the
 business of creating and licensing software in the field of
 computational chemistry and represents and warrants to the
 licensee that it is not a competitor of Gaussian, Inc. and that
 it will not use this program in any manner prohibited above.
 ---------------------------------------------------------------
  

 Cite this work as:
 Gaussian 09, Revision D.01,
 M. J. Frisch, G. W. Trucks, H. B. Schlegel, G. E. Scuseria, 
 M. A. Robb, J. R. Cheeseman, G. Scalmani, V. Barone, B. Mennucci, 
 G. A. Petersson, H. Nakatsuji, M. Caricato, X. Li, H. P. Hratchian, 
 A. F. Izmaylov, J. Bloino, G. Zheng, J. L. Sonnenberg, M. Hada, 
 M. Ehara, K. Toyota, R. Fukuda, J. Hasegawa, M. Ishida, T. Nakajima, 
 Y. Honda, O. Kitao, H. Nakai, T. Vreven, J. A. Montgomery, Jr., 
 J. E. Peralta, F. Ogliaro, M. Bearpark, J. J. Heyd, E. Brothers, 
 K. N. Kudin, V. N. Staroverov, T. Keith, R. Kobayashi, J. Normand, 
 K. Raghavachari, A. Rendell, J. C. Burant, S. S. Iyengar, J. Tomasi, 
 M. Cossi, N. Rega, J. M. Millam, M. Klene, J. E. Knox, J. B. Cross, 
 V. Bakken, C. Adamo, J. Jaramillo, R. Gomperts, R. E. Stratmann, 
 O. Yazyev, A. J. Austin, R. Cammi, C. Pomelli, J. W. Ochterski, 
 R. L. Martin, K. Morokuma, V. G. Zakrzewski, G. A. Voth, 
 P. Salvador, J. J. Dannenberg, S. Dapprich, A. D. Daniels, 
 O. Farkas, J. B. Foresman, J. V. Ortiz, J. Cioslowski, 
 and D. J. Fox, Gaussian, Inc., Wallingford CT, 2013.
 
 ******************************************
 Gaussian 09:  ES64L-G09RevD.01 24-Apr-2013
                21-Aug-2020 
 ******************************************
 %nprocshared=4
 Will use up to    4 processors via shared memory.
 %chk=freq_TS_2H2O_claisen_PM6_toluene_water_1.chk
 ----------------------------------------------------------------------
 # freq pm6 scrf=(cpcm,solvent=water) geom=connectivity empiricaldisper
 sion=gd3
 ----------------------------------------------------------------------
 1/10=4,30=1,38=1,57=2/1,3;
 2/12=2,17=6,18=5,40=1/2;
 3/5=2,16=1,25=1,41=3900000,70=2101,71=2,72=1,124=31,140=1/1,2,3;
 4/35=1/1;
 5/5=2,35=1,38=5,53=1,98=1/2;
 8/6=4,10=90,11=11/1;
 11/6=1,8=1,9=11,15=111,16=1/1,2,10;
 10/6=1/2;
 6/7=2,8=2,9=2,10=2,18=1,28=1/1;
 7/8=1,10=1,25=1/1,2,3,16;
 1/10=4,30=1/3;
 99//99;
 -------------------
 Title Card Required
 -------------------
 Symbolic Z-matrix:
 Charge =  0 Multiplicity = 1
 C                    -2.578     2.74827   0.47385 
 C                    -2.98228   1.44387   0.25348 
 C                    -2.02843   0.44383  -0.06682 
 C                    -0.66239   0.80031  -0.14987 
 C                    -0.27279   2.14365   0.06966 
 C                    -1.21359   3.10591   0.3795 
 H                    -3.31304   3.51697   0.72165 
 H                    -4.0401    1.18922   0.32701 
 H                     0.79121   2.3979   -0.01171 
 H                    -0.91712   4.14055   0.55296 
 C                     0.3422   -0.21866  -0.48135 
 C                    -2.38239  -0.93445  -0.3257 
 C                    -0.06607  -1.56085  -0.6961 
 H                     0.59776  -2.24065  -1.23457 
 C                    -1.46458  -1.8832   -0.65811 
 H                    -1.75824  -2.91229  -0.8821 
 O                     1.58843   0.08955  -0.4533 
 Cl                   -4.04953  -1.38174  -0.2274 
 C                     2.4972   -0.6367    1.24205 
 C                     2.02855  -1.94641   1.0148 
 H                     2.71831  -2.65425   0.54344 
 C                     3.88178  -0.26925   0.83936 
 H                     4.54274  -0.15883   1.71604 
 H                     4.35968  -0.99841   0.16981 
 H                     3.90591   0.7052    0.31361 
 C                     1.82785   0.29005   2.19576 
 H                     0.72813   0.24248   2.16944 
 H                     2.121     0.04793   3.23387 
 H                     2.0978    1.345     2.03639 
 C                     0.70189  -2.31598   1.1487 
 H                     0.38897  -3.34153   0.95714 
 H                    -0.00525  -1.74565   1.74914 
 O                     2.90384   2.11967  -1.22163 
 H                     2.1699    1.85561  -0.62351 
 H                     3.09248   1.3      -1.7374 
 O                     3.07734  -0.38256  -2.44226 
 H                     2.32721  -0.34453  -3.04091 
 H                     2.7042   -0.73071  -1.59226 
 

 GradGradGradGradGradGradGradGradGradGradGradGradGradGradGradGradGradGrad
 Berny optimization.
 Initialization pass.
 Trust Radius=3.00D-01 FncErr=1.00D-07 GrdErr=1.00D-07
 Number of steps in this run=      2 maximum allowed number of steps=      2.
 GradGradGradGradGradGradGradGradGradGradGradGradGradGradGradGradGradGrad

                          Input orientation:                          
 ---------------------------------------------------------------------
 Center     Atomic      Atomic             Coordinates (Angstroms)
 Number     Number       Type             X           Y           Z
 ---------------------------------------------------------------------
      1          6           0       -2.577995    2.748269    0.473854
      2          6           0       -2.982276    1.443869    0.253480
      3          6           0       -2.028433    0.443834   -0.066818
      4          6           0       -0.662391    0.800311   -0.149871
      5          6           0       -0.272794    2.143648    0.069664
      6          6           0       -1.213589    3.105913    0.379499
      7          1           0       -3.313042    3.516974    0.721649
      8          1           0       -4.040096    1.189217    0.327005
      9          1           0        0.791214    2.397900   -0.011705
     10          1           0       -0.917124    4.140554    0.552963
     11          6           0        0.342198   -0.218656   -0.481348
     12          6           0       -2.382394   -0.934449   -0.325702
     13          6           0       -0.066072   -1.560852   -0.696099
     14          1           0        0.597757   -2.240647   -1.234571
     15          6           0       -1.464583   -1.883203   -0.658114
     16          1           0       -1.758240   -2.912291   -0.882099
     17          8           0        1.588426    0.089548   -0.453296
     18         17           0       -4.049533   -1.381742   -0.227401
     19          6           0        2.497199   -0.636701    1.242046
     20          6           0        2.028551   -1.946409    1.014797
     21          1           0        2.718305   -2.654251    0.543436
     22          6           0        3.881778   -0.269251    0.839358
     23          1           0        4.542740   -0.158826    1.716043
     24          1           0        4.359684   -0.998406    0.169808
     25          1           0        3.905908    0.705204    0.313614
     26          6           0        1.827854    0.290054    2.195758
     27          1           0        0.728133    0.242481    2.169438
     28          1           0        2.121004    0.047928    3.233867
     29          1           0        2.097803    1.344996    2.036394
     30          6           0        0.701892   -2.315980    1.148697
     31          1           0        0.388970   -3.341531    0.957138
     32          1           0       -0.005247   -1.745653    1.749139
     33          8           0        2.903837    2.119670   -1.221625
     34          1           0        2.169897    1.855606   -0.623508
     35          1           0        3.092481    1.300001   -1.737397
     36          8           0        3.077342   -0.382564   -2.442255
     37          1           0        2.327207   -0.344534   -3.040913
     38          1           0        2.704196   -0.730714   -1.592260
 ---------------------------------------------------------------------
                    Distance matrix (angstroms):
                    1          2          3          4          5
     1  C    0.000000
     2  C    1.383281   0.000000
     3  C    2.429972   1.418618   0.000000
     4  C    2.802340   2.441050   1.414229   0.000000
     5  C    2.417207   2.804420   2.447501   1.415816   0.000000
     6  C    1.413653   2.430334   2.819545   2.428961   1.380959
     7  H    1.092064   2.150896   3.422877   3.894324   3.399149
     8  H    2.142416   1.090521   2.181165   3.433300   3.894833
     9  H    3.422002   3.901247   3.431009   2.164335   1.096986
    10  H    2.168688   3.409788   3.909588   3.422877   2.153224
    11  C    4.271134   3.788943   2.496121   1.468799   2.502461
    12  C    3.773587   2.520259   1.446366   2.449228   3.752520
    13  C    5.123190   4.293518   2.874999   2.495807   3.788462
    14  H    6.155761   5.348513   3.932806   3.465829   4.656279
    15  C    4.896077   3.768793   2.466305   2.846589   4.262106
    16  H    5.878141   4.665183   3.464284   3.939601   5.354897
    17  O    5.028665   4.819236   3.654662   2.379796   2.820807
    18  Cl   4.440065   3.058490   2.728252   4.029900   5.174976
    19  C    6.148637   5.943962   4.833428   3.739712   4.096057
    20  C    6.599461   6.097702   4.831384   4.017722   4.787278
    21  H    7.565901   7.026755   5.701058   4.883009   5.673708
    22  C    7.139166   7.098822   6.021648   4.772003   4.865694
    23  H    7.790963   7.831576   6.835357   5.612038   5.585814
    24  H    7.890590   7.737964   6.553174   5.344045   5.598427
    25  H    6.800058   6.927938   5.952264   4.592736   4.426080
    26  C    5.330974   5.314234   4.473684   3.458852   3.516932
    27  H    4.481569   4.345269   3.555283   2.761146   3.004221
    28  H    6.081949   6.072464   5.316868   4.445565   4.487147
    29  H    5.125797   5.384771   4.718201   3.563019   3.182075
    30  C    6.071218   5.339567   4.068012   3.641266   4.690694
    31  H    6.791326   5.895803   4.606659   4.414259   5.595778
    32  H    5.332984   4.612239   3.490678   3.243456   4.244865
    33  O    5.772371   6.105650   5.335662   3.950613   3.429138
    34  H    4.954143   5.242473   4.464188   3.059385   2.555425
    35  H    6.256310   6.394291   5.454138   4.107188   3.911814
    36  O    7.091449   6.879085   5.691623   4.543107   4.890286
    37  H    6.780857   6.499386   5.332763   4.313524   4.756758
    38  H    6.653848   6.361724   5.109238   3.969689   4.459419
                    6          7          8          9         10
     6  C    0.000000
     7  H    2.166504   0.000000
     8  H    3.415497   2.470385   0.000000
     9  H    2.161841   4.316834   4.991713   0.000000
    10  H    1.090167   2.481477   4.302836   2.504818   0.000000
    11  C    3.770184   5.363107   4.673333   2.696024   4.653859
    12  C    4.264732   4.666714   2.771996   4.612476   5.354879
    13  C    4.924673   6.191699   4.939887   4.107925   5.898345
    14  H    5.871278   7.229892   5.975966   4.800932   6.797784
    15  C    5.102050   5.872177   4.128376   4.882039   6.168636
    16  H    6.173091   6.806237   4.846769   5.954446   7.246344
    17  O    4.200392   6.095255   5.787780   2.481741   4.868366
    18  Cl   5.343216   5.043861   2.630073   6.145327   6.396617
    19  C    5.340514   7.161196   6.848905   3.700146   5.912242
    20  C    6.036641   7.646379   6.865398   4.632249   6.778009
    21  H    6.976113   8.630928   7.777858   5.435632   7.706219
    22  C    6.129108   8.131100   8.071290   4.170083   6.523639
    23  H    6.751311   8.730042   8.798393   4.857562   7.046101
    24  H    6.924650   8.919860   8.681400   4.929688   7.375664
    25  H    5.654820   7.757950   7.960743   3.559827   5.926260
    26  C    4.525288   6.246185   6.223630   3.223435   5.005999
    27  H    3.895306   5.399027   5.198738   3.067115   4.529331
    28  H    5.349598   6.919131   6.907354   4.221901   5.759085
    29  H    4.100176   5.976896   6.373389   2.647733   4.370984
    30  C    5.801522   7.094041   5.953825   4.855427   6.683034
    31  H    6.668688   7.797399   6.367211   5.834512   7.605974
    32  H    5.183985   6.300197   5.188057   4.572084   6.075343
    33  O    4.526530   6.661708   7.175110   2.450407   4.672566
    34  H    3.743964   5.884914   6.317560   1.602858   4.016811
    35  H    5.126871   7.210590   7.426149   3.078835   5.421386
    36  O    6.208370   8.127342   7.797257   4.343378   6.736890
    37  H    6.011825   7.802597   7.364632   4.365354   6.599821
    38  H    5.827227   7.720374   7.270157   3.993229   6.437794
                   11         12         13         14         15
    11  C    0.000000
    12  C    2.821345   0.000000
    13  C    1.419258   2.427946   0.000000
    14  H    2.172810   3.378387   1.092127   0.000000
    15  C    2.463010   1.361253   1.435683   2.171017   0.000000
    16  H    3.439202   2.147325   2.173572   2.475089   1.093355
    17  O    1.284080   4.102714   2.349497   2.649835   3.640681
    18  Cl   4.550226   1.728897   4.014937   4.832123   2.668135
    19  C    2.790856   5.133899   3.343773   3.509153   4.567285
    20  C    2.840311   4.719898   2.731898   2.682052   3.873579
    21  H    3.553616   5.452545   3.238012   2.798053   4.419818
    22  C    3.778287   6.406224   4.428474   4.355729   5.781941
    23  H    4.740956   7.261391   5.387509   5.348177   6.685658
    24  H    4.143936   6.760565   4.544607   4.203277   5.948984
    25  H    3.766366   6.529926   4.683071   4.692417   6.040387
    26  C    3.103684   5.057999   3.921179   4.436749   4.869063
    27  H    2.718135   4.157676   3.477653   4.215471   4.161921
    28  H    4.127716   5.823761   4.776621   5.246408   5.633224
    29  H    3.444732   5.554055   4.537932   5.079979   5.511101
    30  C    2.680521   3.687181   2.136179   2.386731   2.854028
    31  H    3.438572   3.888468   2.472059   2.461529   2.858569
    32  H    2.725346   3.257890   2.452966   3.084017   2.818412
    33  O    3.546516   6.170459   4.758443   4.932599   5.951775
    34  H    2.768259   5.347565   4.083750   4.429933   5.214339
    35  H    3.383494   6.079466   4.386940   4.360352   5.662550
    36  O    3.369426   5.881589   3.783976   3.325555   5.105307
    37  H    3.241524   5.468154   3.564459   3.138330   4.735283
    38  H    2.659956   5.245863   3.027642   2.616281   4.424882
                   16         17         18         19         20
    16  H    0.000000
    17  O    4.516092   0.000000
    18  Cl   2.832178   5.831150   0.000000
    19  C    5.272482   2.056086   6.750856   0.000000
    20  C    4.344068   2.548358   6.229367   1.409471   0.000000
    21  H    4.705124   3.130261   6.929437   2.146498   1.094980
    22  C    6.462111   2.656907   8.079685   1.488031   2.505611
    23  H    7.350800   3.673648   8.893799   2.153433   3.163597
    24  H    6.496034   3.041673   8.427316   2.179306   2.654599
    25  H    6.826315   2.517520   8.242395   2.155726   3.323730
    26  C    5.708615   2.667399   6.573453   1.488779   2.537068
    27  H    5.044454   2.764458   5.586504   2.182341   2.795626
    28  H    6.383777   3.725660   7.218023   2.139530   2.984996
    29  H    6.442916   2.834461   7.095746   2.172010   3.446999
    30  C    3.245299   3.023060   5.034132   2.460045   1.383668
    31  H    2.859642   3.898759   4.994418   3.441207   2.153582
    32  H    3.370080   3.280012   4.516126   2.783730   2.171611
    33  O    6.868105   2.538116   7.848422   3.719222   4.722362
    34  H    6.183039   1.867094   7.022723   3.130337   4.142383
    35  H    6.481083   2.318684   7.776902   3.603090   4.386992
    36  O    5.675954   2.528976   7.529693   3.738345   3.936595
    37  H    5.286278   2.725800   7.046592   4.296277   4.370810
    38  H    5.017663   1.793045   6.920949   2.843409   2.954853
                   21         22         23         24         25
    21  H    0.000000
    22  C    2.670106   0.000000
    23  H    3.306163   1.103468   0.000000
    24  H    2.361259   1.099254   1.768968   0.000000
    25  H    3.570596   1.107498   1.766044   1.768864   0.000000
    26  C    3.491705   2.524133   2.793246   3.489236   2.834277
    27  H    3.872431   3.460702   3.862362   4.327411   3.708969
    28  H    3.859658   2.989080   2.865544   3.936364   3.485078
    29  H    4.313690   2.687239   2.888221   3.753902   2.578090
    30  C    2.132297   3.794267   4.441543   4.009198   4.482258
    31  H    2.463596   4.653223   5.287660   4.677253   5.399911
    32  H    3.114002   4.256340   4.816980   4.701626   4.833691
    33  O    5.093151   3.303175   4.062935   3.711869   2.315560
    34  H    4.690556   3.096051   3.893818   3.683735   2.283716
    35  H    4.580209   3.118527   4.019661   3.244366   2.285190
    36  O    3.768796   3.380672   4.414623   2.974313   3.076455
    37  H    4.281975   4.180773   5.250877   3.855806   3.853193
    38  H    2.874264   2.740878   3.827815   2.432526   2.671765
                   26         27         28         29         30
    26  C    0.000000
    27  H    1.101064   0.000000
    28  H    1.105546   1.763788   0.000000
    29  H    1.100533   1.763303   1.765465   0.000000
    30  C    3.025812   2.754691   3.456859   4.017377   0.000000
    31  H    4.097923   3.798664   4.435298   5.103767   1.089206
    32  H    2.775578   2.160364   3.153140   3.749326   1.088967
    33  O    4.022902   4.444866   4.975575   3.444488   5.490171
    34  H    3.242870   3.532903   4.260215   2.709428   4.764229
    35  H    4.253114   4.687414   5.217750   3.902936   5.207665
    36  O    4.850237   5.213173   5.772198   4.899210   4.719724
    37  H    5.298564   5.481732   6.290422   5.355948   4.907248
    38  H    4.019829   4.359163   4.923200   4.224147   3.746350
                   31         32         33         34         35
    31  H    0.000000
    32  H    1.824692   0.000000
    33  O    6.395020   5.677053   0.000000
    34  H    5.716675   4.830090   0.982925   0.000000
    35  H    6.009435   5.570266   0.986643   1.549389   0.000000
    36  O    5.247733   5.378490   2.789483   3.023359   1.824302
    37  H    5.359400   5.508909   3.116827   3.272493   2.233673
    38  H    4.321582   4.419969   2.881305   2.813007   2.072591
                   36         37         38
    36  O    0.000000
    37  H    0.960490   0.000000
    38  H    0.991432   1.545914   0.000000
 Stoichiometry    C15H19ClO3
 Framework group  C1[X(C15H19ClO3)]
 Deg. of freedom   108
 Full point group                 C1      NOp   1
 Largest Abelian subgroup         C1      NOp   1
 Largest concise Abelian subgroup C1      NOp   1
                         Standard orientation:                         
 ---------------------------------------------------------------------
 Center     Atomic      Atomic             Coordinates (Angstroms)
 Number     Number       Type             X           Y           Z
 ---------------------------------------------------------------------
      1          6           0        2.577995    2.748269   -0.473854
      2          6           0        2.982276    1.443869   -0.253480
      3          6           0        2.028433    0.443834    0.066818
      4          6           0        0.662391    0.800311    0.149871
      5          6           0        0.272794    2.143648   -0.069664
      6          6           0        1.213589    3.105913   -0.379499
      7          1           0        3.313042    3.516974   -0.721649
      8          1           0        4.040096    1.189217   -0.327005
      9          1           0       -0.791214    2.397900    0.011705
     10          1           0        0.917124    4.140554   -0.552963
     11          6           0       -0.342198   -0.218656    0.481348
     12          6           0        2.382394   -0.934449    0.325702
     13          6           0        0.066072   -1.560852    0.696099
     14          1           0       -0.597757   -2.240647    1.234571
     15          6           0        1.464583   -1.883203    0.658114
     16          1           0        1.758240   -2.912291    0.882099
     17          8           0       -1.588426    0.089548    0.453296
     18         17           0        4.049533   -1.381742    0.227401
     19          6           0       -2.497199   -0.636701   -1.242046
     20          6           0       -2.028551   -1.946409   -1.014797
     21          1           0       -2.718305   -2.654251   -0.543436
     22          6           0       -3.881778   -0.269251   -0.839358
     23          1           0       -4.542740   -0.158826   -1.716043
     24          1           0       -4.359684   -0.998406   -0.169808
     25          1           0       -3.905908    0.705204   -0.313614
     26          6           0       -1.827854    0.290054   -2.195758
     27          1           0       -0.728133    0.242481   -2.169438
     28          1           0       -2.121004    0.047928   -3.233867
     29          1           0       -2.097803    1.344996   -2.036394
     30          6           0       -0.701892   -2.315980   -1.148697
     31          1           0       -0.388970   -3.341531   -0.957138
     32          1           0        0.005247   -1.745653   -1.749139
     33          8           0       -2.903837    2.119670    1.221625
     34          1           0       -2.169897    1.855606    0.623508
     35          1           0       -3.092481    1.300001    1.737397
     36          8           0       -3.077342   -0.382564    2.442255
     37          1           0       -2.327207   -0.344534    3.040913
     38          1           0       -2.704196   -0.730714    1.592260
 ---------------------------------------------------------------------
 Rotational constants (GHZ):      0.4948877      0.2477821      0.2059225
 Standard basis: VSTO-6G (5D, 7F)
 There are   101 symmetry adapted cartesian basis functions of A   symmetry.
 There are   100 symmetry adapted basis functions of A   symmetry.
   100 basis functions,   606 primitive gaussians,   101 cartesian basis functions
    52 alpha electrons       52 beta electrons
       nuclear repulsion energy       863.7283633934 Hartrees.
 Integral buffers will be    131072 words long.
 Regular integral format.
 Two-electron integral symmetry is turned off.
 Nuclear repulsion after empirical dispersion term =      863.7114313872 Hartrees.
 Force inversion solution in PCM.
 ------------------------------------------------------------------------------
 Polarizable Continuum Model (PCM)
 =================================
 Model                : C-PCM.
 Atomic radii         : UFF (Universal Force Field).
 Polarization charges : Total charges.
 Charge compensation  : None.
 Solution method      : Matrix inversion.
 Cavity type          : Scaled VdW (van der Waals Surface) (Alpha=1.100).
 Cavity algorithm     : GePol (No added spheres)
                        Default sphere list used, NSphG=   38.
                        Lebedev-Laikov grids with approx.  5.0 points / Ang**2.
                        Smoothing algorithm: Karplus/York (Gamma=1.0000).
                        Polarization charges: spherical gaussians, with
                                              point-specific exponents (IZeta= 3).
                        Self-potential: point-specific (ISelfS= 7).
                        Self-field    : sphere-specific E.n sum rule (ISelfD= 2).
 1st derivatives      : Analytical E(r).r(x)/FMM algorithm (CHGder, D1EAlg=3).
                        Cavity 1st derivative terms included.
 2nd derivatives      : Analytical E(r).r(xy)/FMM algorithm (CHGder, D2EAlg=3).
                        Cavity 2nd derivative terms included.
 Solvent              : Water, Eps=  78.355300 Eps(inf)=   1.777849
 ------------------------------------------------------------------------------
 Do NDO integrals.
 One-electron integrals computed using PRISM.
 PrsmSu:  requested number of processors reduced to:   2 ShMem   1 Linda.
 NBasis=   100 RedAO= F EigKep=  0.00D+00  NBF=   100
 NBsUse=   100 1.00D-04 EigRej=  0.00D+00 NBFU=   100
 Nonelectrostatic core Hamiltonian diagonalized for initial guess.
 Overlap will be assumed to be unity.
 Keep J ints in memory in canonical form, NReq=11496638.
 Requested convergence on RMS density matrix=1.00D-08 within 128 cycles.
 Requested convergence on MAX density matrix=1.00D-06.
 Requested convergence on             energy=1.00D-06.
 No special actions if energy rises.
 Inv3:  Mode=1 IEnd=    20124300.
 Iteration    1 A*A^-1 deviation from unit magnitude is 8.10D-15 for   2581.
 Iteration    1 A*A^-1 deviation from orthogonality  is 2.52D-15 for   2572   2212.
 Iteration    1 A^-1*A deviation from unit magnitude is 7.88D-15 for   2581.
 Iteration    1 A^-1*A deviation from orthogonality  is 2.38D-15 for   2406    853.
 Error on total polarization charges = -0.00018
 SCF Done:  E(RPM6D3) = -0.190893321374     A.U. after   23 cycles
            NFock= 22  Conv=0.31D-08     -V/T= 0.9972
 Range of M.O.s used for correlation:     1   100
 NBasis=   100 NAE=    52 NBE=    52 NFC=     0 NFV=     0
 NROrb=    100 NOA=    52 NOB=    52 NVA=    48 NVB=    48
 PrsmSu:  requested number of processors reduced to:   1 ShMem   1 Linda.
 Symmetrizing basis deriv contribution to polar:
 IMax=3 JMax=2 DiffMx= 0.00D+00
 G2DrvN: will do    39 centers at a time, making    1 passes.
 Calling FoFCou, ICntrl=  3107 FMM=F I1Cent=   0 AccDes= 0.00D+00.
 NEqPCM:  Using equilibrium solvation (IEInf=0, Eps=  78.3553, EpsInf=   1.7778)
 G2PCM: DoFxE=T DoFxN=T DoGrad=T DoDP/DQ/DG/TGxP=FFFF NFrqRd=   0 IEInf=0 SqF1=F DoCFld=F IF1Alg=4.
 CoulSu:  requested number of processors reduced to:   3 ShMem   1 Linda.
 End of G2Drv F.D. properties file   721 does not exist.
 End of G2Drv F.D. properties file   722 does not exist.
 End of G2Drv F.D. properties file   788 does not exist.
          IDoAtm=11111111111111111111111111111111111111
 NEqPCM:  Using equilibrium solvation (IEInf=0, Eps=  78.3553, EpsInf=   1.7778)
          Differentiating once with respect to electric field.
                with respect to dipole field.
          Differentiating once with respect to nuclear coordinates.
          Electric field/nuclear overlap derivatives assumed to be zero.
 Keep J ints in memory in canonical form, NReq=16620346.
          There are   117 degrees of freedom in the 1st order CPHF.  IDoFFX=5 NUNeed=   117.
 LinEq1:  Iter=  0 NonCon=   117 RMS=2.10D-01 Max=5.26D+00 NDo=   117
 AX will form   117 AO Fock derivatives at one time.
 LinEq1:  Iter=  1 NonCon=   117 RMS=4.00D-02 Max=7.79D-01 NDo=   117
 LinEq1:  Iter=  2 NonCon=   117 RMS=1.01D-02 Max=1.87D-01 NDo=   117
 LinEq1:  Iter=  3 NonCon=   117 RMS=2.01D-03 Max=4.13D-02 NDo=   117
 LinEq1:  Iter=  4 NonCon=   117 RMS=4.80D-04 Max=7.08D-03 NDo=   117
 LinEq1:  Iter=  5 NonCon=   117 RMS=1.35D-04 Max=1.88D-03 NDo=   117
 LinEq1:  Iter=  6 NonCon=   117 RMS=3.30D-05 Max=4.89D-04 NDo=   117
 LinEq1:  Iter=  7 NonCon=   105 RMS=6.67D-06 Max=1.11D-04 NDo=   117
 LinEq1:  Iter=  8 NonCon=    49 RMS=1.43D-06 Max=1.95D-05 NDo=   117
 LinEq1:  Iter=  9 NonCon=     6 RMS=2.84D-07 Max=3.80D-06 NDo=   117
 LinEq1:  Iter= 10 NonCon=     3 RMS=4.41D-08 Max=4.91D-07 NDo=   117
 LinEq1:  Iter= 11 NonCon=     0 RMS=7.60D-09 Max=8.54D-08 NDo=   117
 Linear equations converged to 1.000D-08 1.000D-07 after    11 iterations.
 Isotropic polarizability for W=    0.000000      229.68 Bohr**3.
 End of Minotr F.D. properties file   721 does not exist.
 End of Minotr F.D. properties file   722 does not exist.
 End of Minotr F.D. properties file   788 does not exist.

 **********************************************************************

            Population analysis using the SCF density.

 **********************************************************************

 Orbital symmetries:
       Occupied  (A) (A) (A) (A) (A) (A) (A) (A) (A) (A) (A) (A)
                 (A) (A) (A) (A) (A) (A) (A) (A) (A) (A) (A) (A)
                 (A) (A) (A) (A) (A) (A) (A) (A) (A) (A) (A) (A)
                 (A) (A) (A) (A) (A) (A) (A) (A) (A) (A) (A) (A)
                 (A) (A) (A) (A)
       Virtual   (A) (A) (A) (A) (A) (A) (A) (A) (A) (A) (A) (A)
                 (A) (A) (A) (A) (A) (A) (A) (A) (A) (A) (A) (A)
                 (A) (A) (A) (A) (A) (A) (A) (A) (A) (A) (A) (A)
                 (A) (A) (A) (A) (A) (A) (A) (A) (A) (A) (A) (A)
 The electronic state is 1-A.
 Alpha  occ. eigenvalues --   -1.14205  -1.11869  -1.10331  -1.08175  -1.07822
 Alpha  occ. eigenvalues --   -1.06528  -1.00476  -0.98590  -0.96554  -0.95259
 Alpha  occ. eigenvalues --   -0.92250  -0.89756  -0.82878  -0.81519  -0.80743
 Alpha  occ. eigenvalues --   -0.76108  -0.69655  -0.68625  -0.68233  -0.65661
 Alpha  occ. eigenvalues --   -0.64596  -0.63194  -0.61128  -0.60161  -0.58365
 Alpha  occ. eigenvalues --   -0.57468  -0.57290  -0.55608  -0.54682  -0.53732
 Alpha  occ. eigenvalues --   -0.53151  -0.52456  -0.51925  -0.51552  -0.50585
 Alpha  occ. eigenvalues --   -0.49843  -0.49314  -0.48943  -0.47842  -0.47295
 Alpha  occ. eigenvalues --   -0.46881  -0.46534  -0.45023  -0.44109  -0.42943
 Alpha  occ. eigenvalues --   -0.42174  -0.41319  -0.40224  -0.39077  -0.38041
 Alpha  occ. eigenvalues --   -0.35368  -0.31991
 Alpha virt. eigenvalues --   -0.04242  -0.02617  -0.00985   0.01773   0.02580
 Alpha virt. eigenvalues --    0.03373   0.06178   0.08982   0.11498   0.12467
 Alpha virt. eigenvalues --    0.12698   0.12720   0.12895   0.14500   0.14697
 Alpha virt. eigenvalues --    0.14856   0.15461   0.15703   0.16315   0.16821
 Alpha virt. eigenvalues --    0.16936   0.17475   0.17806   0.18018   0.18592
 Alpha virt. eigenvalues --    0.18618   0.19071   0.19318   0.19405   0.19580
 Alpha virt. eigenvalues --    0.19876   0.20194   0.20411   0.20740   0.21324
 Alpha virt. eigenvalues --    0.21764   0.21860   0.21888   0.21958   0.22362
 Alpha virt. eigenvalues --    0.23135   0.23497   0.24064   3.24236   3.24279
 Alpha virt. eigenvalues --    3.24445   3.25374   3.25425
          Condensed to atoms (all electrons):
               1          2          3          4          5          6
     1  C    4.078153   0.000000   0.000000   0.000000   0.000000   0.000000
     2  C    0.000000   4.217588   0.000000   0.000000   0.000000   0.000000
     3  C    0.000000   0.000000   3.897320   0.000000   0.000000   0.000000
     4  C    0.000000   0.000000   0.000000   4.200800   0.000000   0.000000
     5  C    0.000000   0.000000   0.000000   0.000000   4.072905   0.000000
     6  C    0.000000   0.000000   0.000000   0.000000   0.000000   4.194380
     7  H    0.000000   0.000000   0.000000   0.000000   0.000000   0.000000
     8  H    0.000000   0.000000   0.000000   0.000000   0.000000   0.000000
     9  H    0.000000   0.000000   0.000000   0.000000   0.000000   0.000000
    10  H    0.000000   0.000000   0.000000   0.000000   0.000000   0.000000
    11  C    0.000000   0.000000   0.000000   0.000000   0.000000   0.000000
    12  C    0.000000   0.000000   0.000000   0.000000   0.000000   0.000000
    13  C    0.000000   0.000000   0.000000   0.000000   0.000000   0.000000
    14  H    0.000000   0.000000   0.000000   0.000000   0.000000   0.000000
    15  C    0.000000   0.000000   0.000000   0.000000   0.000000   0.000000
    16  H    0.000000   0.000000   0.000000   0.000000   0.000000   0.000000
    17  O    0.000000   0.000000   0.000000   0.000000   0.000000   0.000000
    18  Cl   0.000000   0.000000   0.000000   0.000000   0.000000   0.000000
    19  C    0.000000   0.000000   0.000000   0.000000   0.000000   0.000000
    20  C    0.000000   0.000000   0.000000   0.000000   0.000000   0.000000
    21  H    0.000000   0.000000   0.000000   0.000000   0.000000   0.000000
    22  C    0.000000   0.000000   0.000000   0.000000   0.000000   0.000000
    23  H    0.000000   0.000000   0.000000   0.000000   0.000000   0.000000
    24  H    0.000000   0.000000   0.000000   0.000000   0.000000   0.000000
    25  H    0.000000   0.000000   0.000000   0.000000   0.000000   0.000000
    26  C    0.000000   0.000000   0.000000   0.000000   0.000000   0.000000
    27  H    0.000000   0.000000   0.000000   0.000000   0.000000   0.000000
    28  H    0.000000   0.000000   0.000000   0.000000   0.000000   0.000000
    29  H    0.000000   0.000000   0.000000   0.000000   0.000000   0.000000
    30  C    0.000000   0.000000   0.000000   0.000000   0.000000   0.000000
    31  H    0.000000   0.000000   0.000000   0.000000   0.000000   0.000000
    32  H    0.000000   0.000000   0.000000   0.000000   0.000000   0.000000
    33  O    0.000000   0.000000   0.000000   0.000000   0.000000   0.000000
    34  H    0.000000   0.000000   0.000000   0.000000   0.000000   0.000000
    35  H    0.000000   0.000000   0.000000   0.000000   0.000000   0.000000
    36  O    0.000000   0.000000   0.000000   0.000000   0.000000   0.000000
    37  H    0.000000   0.000000   0.000000   0.000000   0.000000   0.000000
    38  H    0.000000   0.000000   0.000000   0.000000   0.000000   0.000000
               7          8          9         10         11         12
     1  C    0.000000   0.000000   0.000000   0.000000   0.000000   0.000000
     2  C    0.000000   0.000000   0.000000   0.000000   0.000000   0.000000
     3  C    0.000000   0.000000   0.000000   0.000000   0.000000   0.000000
     4  C    0.000000   0.000000   0.000000   0.000000   0.000000   0.000000
     5  C    0.000000   0.000000   0.000000   0.000000   0.000000   0.000000
     6  C    0.000000   0.000000   0.000000   0.000000   0.000000   0.000000
     7  H    0.843096   0.000000   0.000000   0.000000   0.000000   0.000000
     8  H    0.000000   0.826483   0.000000   0.000000   0.000000   0.000000
     9  H    0.000000   0.000000   0.847594   0.000000   0.000000   0.000000
    10  H    0.000000   0.000000   0.000000   0.833898   0.000000   0.000000
    11  C    0.000000   0.000000   0.000000   0.000000   3.534320   0.000000
    12  C    0.000000   0.000000   0.000000   0.000000   0.000000   4.105973
    13  C    0.000000   0.000000   0.000000   0.000000   0.000000   0.000000
    14  H    0.000000   0.000000   0.000000   0.000000   0.000000   0.000000
    15  C    0.000000   0.000000   0.000000   0.000000   0.000000   0.000000
    16  H    0.000000   0.000000   0.000000   0.000000   0.000000   0.000000
    17  O    0.000000   0.000000   0.000000   0.000000   0.000000   0.000000
    18  Cl   0.000000   0.000000   0.000000   0.000000   0.000000   0.000000
    19  C    0.000000   0.000000   0.000000   0.000000   0.000000   0.000000
    20  C    0.000000   0.000000   0.000000   0.000000   0.000000   0.000000
    21  H    0.000000   0.000000   0.000000   0.000000   0.000000   0.000000
    22  C    0.000000   0.000000   0.000000   0.000000   0.000000   0.000000
    23  H    0.000000   0.000000   0.000000   0.000000   0.000000   0.000000
    24  H    0.000000   0.000000   0.000000   0.000000   0.000000   0.000000
    25  H    0.000000   0.000000   0.000000   0.000000   0.000000   0.000000
    26  C    0.000000   0.000000   0.000000   0.000000   0.000000   0.000000
    27  H    0.000000   0.000000   0.000000   0.000000   0.000000   0.000000
    28  H    0.000000   0.000000   0.000000   0.000000   0.000000   0.000000
    29  H    0.000000   0.000000   0.000000   0.000000   0.000000   0.000000
    30  C    0.000000   0.000000   0.000000   0.000000   0.000000   0.000000
    31  H    0.000000   0.000000   0.000000   0.000000   0.000000   0.000000
    32  H    0.000000   0.000000   0.000000   0.000000   0.000000   0.000000
    33  O    0.000000   0.000000   0.000000   0.000000   0.000000   0.000000
    34  H    0.000000   0.000000   0.000000   0.000000   0.000000   0.000000
    35  H    0.000000   0.000000   0.000000   0.000000   0.000000   0.000000
    36  O    0.000000   0.000000   0.000000   0.000000   0.000000   0.000000
    37  H    0.000000   0.000000   0.000000   0.000000   0.000000   0.000000
    38  H    0.000000   0.000000   0.000000   0.000000   0.000000   0.000000
              13         14         15         16         17         18
     1  C    0.000000   0.000000   0.000000   0.000000   0.000000   0.000000
     2  C    0.000000   0.000000   0.000000   0.000000   0.000000   0.000000
     3  C    0.000000   0.000000   0.000000   0.000000   0.000000   0.000000
     4  C    0.000000   0.000000   0.000000   0.000000   0.000000   0.000000
     5  C    0.000000   0.000000   0.000000   0.000000   0.000000   0.000000
     6  C    0.000000   0.000000   0.000000   0.000000   0.000000   0.000000
     7  H    0.000000   0.000000   0.000000   0.000000   0.000000   0.000000
     8  H    0.000000   0.000000   0.000000   0.000000   0.000000   0.000000
     9  H    0.000000   0.000000   0.000000   0.000000   0.000000   0.000000
    10  H    0.000000   0.000000   0.000000   0.000000   0.000000   0.000000
    11  C    0.000000   0.000000   0.000000   0.000000   0.000000   0.000000
    12  C    0.000000   0.000000   0.000000   0.000000   0.000000   0.000000
    13  C    4.427732   0.000000   0.000000   0.000000   0.000000   0.000000
    14  H    0.000000   0.805045   0.000000   0.000000   0.000000   0.000000
    15  C    0.000000   0.000000   4.045769   0.000000   0.000000   0.000000
    16  H    0.000000   0.000000   0.000000   0.832786   0.000000   0.000000
    17  O    0.000000   0.000000   0.000000   0.000000   6.685526   0.000000
    18  Cl   0.000000   0.000000   0.000000   0.000000   0.000000   7.104383
    19  C    0.000000   0.000000   0.000000   0.000000   0.000000   0.000000
    20  C    0.000000   0.000000   0.000000   0.000000   0.000000   0.000000
    21  H    0.000000   0.000000   0.000000   0.000000   0.000000   0.000000
    22  C    0.000000   0.000000   0.000000   0.000000   0.000000   0.000000
    23  H    0.000000   0.000000   0.000000   0.000000   0.000000   0.000000
    24  H    0.000000   0.000000   0.000000   0.000000   0.000000   0.000000
    25  H    0.000000   0.000000   0.000000   0.000000   0.000000   0.000000
    26  C    0.000000   0.000000   0.000000   0.000000   0.000000   0.000000
    27  H    0.000000   0.000000   0.000000   0.000000   0.000000   0.000000
    28  H    0.000000   0.000000   0.000000   0.000000   0.000000   0.000000
    29  H    0.000000   0.000000   0.000000   0.000000   0.000000   0.000000
    30  C    0.000000   0.000000   0.000000   0.000000   0.000000   0.000000
    31  H    0.000000   0.000000   0.000000   0.000000   0.000000   0.000000
    32  H    0.000000   0.000000   0.000000   0.000000   0.000000   0.000000
    33  O    0.000000   0.000000   0.000000   0.000000   0.000000   0.000000
    34  H    0.000000   0.000000   0.000000   0.000000   0.000000   0.000000
    35  H    0.000000   0.000000   0.000000   0.000000   0.000000   0.000000
    36  O    0.000000   0.000000   0.000000   0.000000   0.000000   0.000000
    37  H    0.000000   0.000000   0.000000   0.000000   0.000000   0.000000
    38  H    0.000000   0.000000   0.000000   0.000000   0.000000   0.000000
              19         20         21         22         23         24
     1  C    0.000000   0.000000   0.000000   0.000000   0.000000   0.000000
     2  C    0.000000   0.000000   0.000000   0.000000   0.000000   0.000000
     3  C    0.000000   0.000000   0.000000   0.000000   0.000000   0.000000
     4  C    0.000000   0.000000   0.000000   0.000000   0.000000   0.000000
     5  C    0.000000   0.000000   0.000000   0.000000   0.000000   0.000000
     6  C    0.000000   0.000000   0.000000   0.000000   0.000000   0.000000
     7  H    0.000000   0.000000   0.000000   0.000000   0.000000   0.000000
     8  H    0.000000   0.000000   0.000000   0.000000   0.000000   0.000000
     9  H    0.000000   0.000000   0.000000   0.000000   0.000000   0.000000
    10  H    0.000000   0.000000   0.000000   0.000000   0.000000   0.000000
    11  C    0.000000   0.000000   0.000000   0.000000   0.000000   0.000000
    12  C    0.000000   0.000000   0.000000   0.000000   0.000000   0.000000
    13  C    0.000000   0.000000   0.000000   0.000000   0.000000   0.000000
    14  H    0.000000   0.000000   0.000000   0.000000   0.000000   0.000000
    15  C    0.000000   0.000000   0.000000   0.000000   0.000000   0.000000
    16  H    0.000000   0.000000   0.000000   0.000000   0.000000   0.000000
    17  O    0.000000   0.000000   0.000000   0.000000   0.000000   0.000000
    18  Cl   0.000000   0.000000   0.000000   0.000000   0.000000   0.000000
    19  C    3.449649   0.000000   0.000000   0.000000   0.000000   0.000000
    20  C    0.000000   4.466061   0.000000   0.000000   0.000000   0.000000
    21  H    0.000000   0.000000   0.808251   0.000000   0.000000   0.000000
    22  C    0.000000   0.000000   0.000000   4.598967   0.000000   0.000000
    23  H    0.000000   0.000000   0.000000   0.000000   0.797044   0.000000
    24  H    0.000000   0.000000   0.000000   0.000000   0.000000   0.809936
    25  H    0.000000   0.000000   0.000000   0.000000   0.000000   0.000000
    26  C    0.000000   0.000000   0.000000   0.000000   0.000000   0.000000
    27  H    0.000000   0.000000   0.000000   0.000000   0.000000   0.000000
    28  H    0.000000   0.000000   0.000000   0.000000   0.000000   0.000000
    29  H    0.000000   0.000000   0.000000   0.000000   0.000000   0.000000
    30  C    0.000000   0.000000   0.000000   0.000000   0.000000   0.000000
    31  H    0.000000   0.000000   0.000000   0.000000   0.000000   0.000000
    32  H    0.000000   0.000000   0.000000   0.000000   0.000000   0.000000
    33  O    0.000000   0.000000   0.000000   0.000000   0.000000   0.000000
    34  H    0.000000   0.000000   0.000000   0.000000   0.000000   0.000000
    35  H    0.000000   0.000000   0.000000   0.000000   0.000000   0.000000
    36  O    0.000000   0.000000   0.000000   0.000000   0.000000   0.000000
    37  H    0.000000   0.000000   0.000000   0.000000   0.000000   0.000000
    38  H    0.000000   0.000000   0.000000   0.000000   0.000000   0.000000
              25         26         27         28         29         30
     1  C    0.000000   0.000000   0.000000   0.000000   0.000000   0.000000
     2  C    0.000000   0.000000   0.000000   0.000000   0.000000   0.000000
     3  C    0.000000   0.000000   0.000000   0.000000   0.000000   0.000000
     4  C    0.000000   0.000000   0.000000   0.000000   0.000000   0.000000
     5  C    0.000000   0.000000   0.000000   0.000000   0.000000   0.000000
     6  C    0.000000   0.000000   0.000000   0.000000   0.000000   0.000000
     7  H    0.000000   0.000000   0.000000   0.000000   0.000000   0.000000
     8  H    0.000000   0.000000   0.000000   0.000000   0.000000   0.000000
     9  H    0.000000   0.000000   0.000000   0.000000   0.000000   0.000000
    10  H    0.000000   0.000000   0.000000   0.000000   0.000000   0.000000
    11  C    0.000000   0.000000   0.000000   0.000000   0.000000   0.000000
    12  C    0.000000   0.000000   0.000000   0.000000   0.000000   0.000000
    13  C    0.000000   0.000000   0.000000   0.000000   0.000000   0.000000
    14  H    0.000000   0.000000   0.000000   0.000000   0.000000   0.000000
    15  C    0.000000   0.000000   0.000000   0.000000   0.000000   0.000000
    16  H    0.000000   0.000000   0.000000   0.000000   0.000000   0.000000
    17  O    0.000000   0.000000   0.000000   0.000000   0.000000   0.000000
    18  Cl   0.000000   0.000000   0.000000   0.000000   0.000000   0.000000
    19  C    0.000000   0.000000   0.000000   0.000000   0.000000   0.000000
    20  C    0.000000   0.000000   0.000000   0.000000   0.000000   0.000000
    21  H    0.000000   0.000000   0.000000   0.000000   0.000000   0.000000
    22  C    0.000000   0.000000   0.000000   0.000000   0.000000   0.000000
    23  H    0.000000   0.000000   0.000000   0.000000   0.000000   0.000000
    24  H    0.000000   0.000000   0.000000   0.000000   0.000000   0.000000
    25  H    0.788885   0.000000   0.000000   0.000000   0.000000   0.000000
    26  C    0.000000   4.594233   0.000000   0.000000   0.000000   0.000000
    27  H    0.000000   0.000000   0.803720   0.000000   0.000000   0.000000
    28  H    0.000000   0.000000   0.000000   0.795446   0.000000   0.000000
    29  H    0.000000   0.000000   0.000000   0.000000   0.803624   0.000000
    30  C    0.000000   0.000000   0.000000   0.000000   0.000000   3.980585
    31  H    0.000000   0.000000   0.000000   0.000000   0.000000   0.000000
    32  H    0.000000   0.000000   0.000000   0.000000   0.000000   0.000000
    33  O    0.000000   0.000000   0.000000   0.000000   0.000000   0.000000
    34  H    0.000000   0.000000   0.000000   0.000000   0.000000   0.000000
    35  H    0.000000   0.000000   0.000000   0.000000   0.000000   0.000000
    36  O    0.000000   0.000000   0.000000   0.000000   0.000000   0.000000
    37  H    0.000000   0.000000   0.000000   0.000000   0.000000   0.000000
    38  H    0.000000   0.000000   0.000000   0.000000   0.000000   0.000000
              31         32         33         34         35         36
     1  C    0.000000   0.000000   0.000000   0.000000   0.000000   0.000000
     2  C    0.000000   0.000000   0.000000   0.000000   0.000000   0.000000
     3  C    0.000000   0.000000   0.000000   0.000000   0.000000   0.000000
     4  C    0.000000   0.000000   0.000000   0.000000   0.000000   0.000000
     5  C    0.000000   0.000000   0.000000   0.000000   0.000000   0.000000
     6  C    0.000000   0.000000   0.000000   0.000000   0.000000   0.000000
     7  H    0.000000   0.000000   0.000000   0.000000   0.000000   0.000000
     8  H    0.000000   0.000000   0.000000   0.000000   0.000000   0.000000
     9  H    0.000000   0.000000   0.000000   0.000000   0.000000   0.000000
    10  H    0.000000   0.000000   0.000000   0.000000   0.000000   0.000000
    11  C    0.000000   0.000000   0.000000   0.000000   0.000000   0.000000
    12  C    0.000000   0.000000   0.000000   0.000000   0.000000   0.000000
    13  C    0.000000   0.000000   0.000000   0.000000   0.000000   0.000000
    14  H    0.000000   0.000000   0.000000   0.000000   0.000000   0.000000
    15  C    0.000000   0.000000   0.000000   0.000000   0.000000   0.000000
    16  H    0.000000   0.000000   0.000000   0.000000   0.000000   0.000000
    17  O    0.000000   0.000000   0.000000   0.000000   0.000000   0.000000
    18  Cl   0.000000   0.000000   0.000000   0.000000   0.000000   0.000000
    19  C    0.000000   0.000000   0.000000   0.000000   0.000000   0.000000
    20  C    0.000000   0.000000   0.000000   0.000000   0.000000   0.000000
    21  H    0.000000   0.000000   0.000000   0.000000   0.000000   0.000000
    22  C    0.000000   0.000000   0.000000   0.000000   0.000000   0.000000
    23  H    0.000000   0.000000   0.000000   0.000000   0.000000   0.000000
    24  H    0.000000   0.000000   0.000000   0.000000   0.000000   0.000000
    25  H    0.000000   0.000000   0.000000   0.000000   0.000000   0.000000
    26  C    0.000000   0.000000   0.000000   0.000000   0.000000   0.000000
    27  H    0.000000   0.000000   0.000000   0.000000   0.000000   0.000000
    28  H    0.000000   0.000000   0.000000   0.000000   0.000000   0.000000
    29  H    0.000000   0.000000   0.000000   0.000000   0.000000   0.000000
    30  C    0.000000   0.000000   0.000000   0.000000   0.000000   0.000000
    31  H    0.849922   0.000000   0.000000   0.000000   0.000000   0.000000
    32  H    0.000000   0.855122   0.000000   0.000000   0.000000   0.000000
    33  O    0.000000   0.000000   6.729920   0.000000   0.000000   0.000000
    34  H    0.000000   0.000000   0.000000   0.660029   0.000000   0.000000
    35  H    0.000000   0.000000   0.000000   0.000000   0.654544   0.000000
    36  O    0.000000   0.000000   0.000000   0.000000   0.000000   6.682286
    37  H    0.000000   0.000000   0.000000   0.000000   0.000000   0.000000
    38  H    0.000000   0.000000   0.000000   0.000000   0.000000   0.000000
              37         38
     1  C    0.000000   0.000000
     2  C    0.000000   0.000000
     3  C    0.000000   0.000000
     4  C    0.000000   0.000000
     5  C    0.000000   0.000000
     6  C    0.000000   0.000000
     7  H    0.000000   0.000000
     8  H    0.000000   0.000000
     9  H    0.000000   0.000000
    10  H    0.000000   0.000000
    11  C    0.000000   0.000000
    12  C    0.000000   0.000000
    13  C    0.000000   0.000000
    14  H    0.000000   0.000000
    15  C    0.000000   0.000000
    16  H    0.000000   0.000000
    17  O    0.000000   0.000000
    18  Cl   0.000000   0.000000
    19  C    0.000000   0.000000
    20  C    0.000000   0.000000
    21  H    0.000000   0.000000
    22  C    0.000000   0.000000
    23  H    0.000000   0.000000
    24  H    0.000000   0.000000
    25  H    0.000000   0.000000
    26  C    0.000000   0.000000
    27  H    0.000000   0.000000
    28  H    0.000000   0.000000
    29  H    0.000000   0.000000
    30  C    0.000000   0.000000
    31  H    0.000000   0.000000
    32  H    0.000000   0.000000
    33  O    0.000000   0.000000
    34  H    0.000000   0.000000
    35  H    0.000000   0.000000
    36  O    0.000000   0.000000
    37  H    0.672650   0.000000
    38  H    0.000000   0.645374
 Mulliken charges:
               1
     1  C   -0.078153
     2  C   -0.217588
     3  C    0.102680
     4  C   -0.200800
     5  C   -0.072905
     6  C   -0.194380
     7  H    0.156904
     8  H    0.173517
     9  H    0.152406
    10  H    0.166102
    11  C    0.465680
    12  C   -0.105973
    13  C   -0.427732
    14  H    0.194955
    15  C   -0.045769
    16  H    0.167214
    17  O   -0.685526
    18  Cl  -0.104383
    19  C    0.550351
    20  C   -0.466061
    21  H    0.191749
    22  C   -0.598967
    23  H    0.202956
    24  H    0.190064
    25  H    0.211115
    26  C   -0.594233
    27  H    0.196280
    28  H    0.204554
    29  H    0.196376
    30  C    0.019415
    31  H    0.150078
    32  H    0.144878
    33  O   -0.729920
    34  H    0.339971
    35  H    0.345456
    36  O   -0.682286
    37  H    0.327350
    38  H    0.354626
 Sum of Mulliken charges =   0.00000
 Mulliken charges with hydrogens summed into heavy atoms:
               1
     1  C    0.078751
     2  C   -0.044071
     3  C    0.102680
     4  C   -0.200800
     5  C    0.079501
     6  C   -0.028278
    11  C    0.465680
    12  C   -0.105973
    13  C   -0.232777
    15  C    0.121445
    17  O   -0.685526
    18  Cl  -0.104383
    19  C    0.550351
    20  C   -0.274312
    22  C    0.005168
    26  C    0.002976
    30  C    0.314372
    33  O   -0.044493
    36  O   -0.000310
 APT charges:
               1
     1  C    0.017430
     2  C   -0.559926
     3  C    0.331529
     4  C   -0.330540
     5  C   -0.153908
     6  C   -0.352792
     7  H    0.244985
     8  H    0.272212
     9  H    0.198717
    10  H    0.263166
    11  C    0.950368
    12  C    0.080855
    13  C   -1.549179
    14  H    0.320063
    15  C    0.413285
    16  H    0.248528
    17  O   -1.184241
    18  Cl  -0.551656
    19  C    1.585011
    20  C   -1.511577
    21  H    0.302543
    22  C   -1.231508
    23  H    0.315877
    24  H    0.282449
    25  H    0.330902
    26  C   -1.030810
    27  H    0.242128
    28  H    0.306624
    29  H    0.285711
    30  C    1.106924
    31  H    0.173733
    32  H    0.068436
    33  O   -0.996659
    34  H    0.561845
    35  H    0.544872
    36  O   -0.957893
    37  H    0.377748
    38  H    0.584212
 Sum of APT charges =  -0.00053
 APT charges with hydrogens summed into heavy atoms:
               1
     1  C    0.262415
     2  C   -0.287714
     3  C    0.331529
     4  C   -0.330540
     5  C    0.044809
     6  C   -0.089626
    11  C    0.950368
    12  C    0.080855
    13  C   -1.229115
    15  C    0.661813
    17  O   -1.184241
    18  Cl  -0.551656
    19  C    1.585011
    20  C   -1.209034
    22  C   -0.302279
    26  C   -0.196347
    30  C    1.349093
    33  O    0.110058
    36  O    0.004067
 Charge=              0.0000 electrons
 Dipole moment (field-independent basis, Debye):
    X=              0.9174    Y=             -3.9706    Z=             -5.7243  Tot=              7.0267
 N-N= 8.637114313872D+02 E-N=-1.592442268037D+03  KE=-6.735907843662D+01
  Exact polarizability: 329.382  14.866 255.690  19.269 -20.945 103.976
 Approx polarizability: 178.718  -2.506 152.767   0.434 -15.642  58.731
 PrsmSu:  requested number of processors reduced to:   1 ShMem   1 Linda.
 D2PCM: C-PCM CHGder 2nd derivatives, FixD1E=F FixD2E=F DoIter=F DoCFld=F I1PDM=0
 Calling FoFJK, ICntrl=    100127 FMM=F ISym2X=0 I1Cent= 0 IOpClX= 0 NMat=1 NMatS=1 NMatT=0.
 CoulSu:  requested number of processors reduced to:   2 ShMem   1 Linda.
 Full mass-weighted force constant matrix:
 Low frequencies --- -567.6095   -7.8163   -4.7172   -3.0269   -0.0452    0.2478
 Low frequencies ---    0.3518   32.0548   39.5044
 ******    1 imaginary frequencies (negative Signs) ****** 
 Diagonal vibrational polarizability:
      378.5135696     205.3986713     544.7048787
 Harmonic frequencies (cm**-1), IR intensities (KM/Mole), Raman scattering
 activities (A**4/AMU), depolarization ratios for plane and unpolarized
 incident light, reduced masses (AMU), force constants (mDyne/A),
 and normal coordinates:
                      1                      2                      3
                      A                      A                      A
 Frequencies --   -567.6095                32.0208                39.4523
 Red. masses --      9.8993                 5.5153                 6.1707
 Frc consts  --      1.8791                 0.0033                 0.0057
 IR Inten    --    901.1699                 2.0437                 1.1619
  Atom  AN      X      Y      Z        X      Y      Z        X      Y      Z
     1   6     0.01  -0.01   0.00     0.01   0.02   0.16     0.01  -0.02  -0.02
     2   6     0.01   0.02  -0.01     0.01   0.01   0.10     0.00  -0.01   0.03
     3   6    -0.01  -0.02   0.01     0.01  -0.01   0.03    -0.01  -0.01   0.00
     4   6    -0.02  -0.03   0.00     0.00  -0.02   0.03    -0.01  -0.02  -0.08
     5   6    -0.01   0.01  -0.01     0.00  -0.01   0.08    -0.01  -0.02  -0.12
     6   6    -0.02  -0.01   0.00     0.00   0.01   0.14     0.00  -0.03  -0.10
     7   1    -0.01   0.01   0.00     0.01   0.04   0.22     0.01  -0.02  -0.01
     8   1     0.00   0.00   0.00     0.01   0.02   0.11     0.01   0.00   0.09
     9   1    -0.01  -0.01   0.00     0.00  -0.02   0.06    -0.02  -0.03  -0.18
    10   1     0.00   0.00   0.01     0.00   0.01   0.19     0.00  -0.03  -0.14
    11   6     0.07  -0.04   0.01     0.00  -0.04  -0.01    -0.02  -0.02  -0.10
    12   6     0.01   0.04  -0.01     0.01  -0.02  -0.03    -0.01  -0.01   0.03
    13   6     0.15   0.22   0.44     0.01  -0.04  -0.05    -0.03  -0.03  -0.14
    14   1    -0.06  -0.06  -0.22     0.02  -0.05  -0.06    -0.04  -0.04  -0.17
    15   6    -0.01   0.03   0.09     0.01  -0.03  -0.06    -0.02  -0.02  -0.07
    16   1    -0.01   0.02   0.01     0.02  -0.04  -0.10    -0.04  -0.03  -0.07
    17   8    -0.13  -0.08  -0.21     0.00  -0.04   0.00    -0.02  -0.01  -0.08
    18  17     0.00   0.00  -0.01     0.01  -0.01  -0.06     0.01   0.03   0.23
    19   6     0.11   0.19   0.22    -0.03  -0.05   0.02    -0.08   0.01  -0.01
    20   6     0.06  -0.11  -0.03     0.02  -0.04  -0.03    -0.01   0.01  -0.11
    21   1    -0.08  -0.03  -0.09     0.05  -0.08  -0.04     0.03  -0.04  -0.14
    22   6     0.05   0.02   0.06    -0.03  -0.11   0.07    -0.07  -0.07   0.10
    23   1     0.11  -0.04  -0.01    -0.07  -0.15   0.09    -0.14  -0.11   0.15
    24   1     0.02   0.00   0.02     0.03  -0.13   0.09     0.03  -0.09   0.14
    25   1    -0.13   0.05   0.04    -0.06  -0.11   0.06    -0.08  -0.07   0.10
    26   6     0.01   0.01   0.02    -0.09   0.00   0.03    -0.18   0.08  -0.02
    27   1     0.02   0.03  -0.05    -0.08   0.05   0.01    -0.18   0.12  -0.11
    28   1    -0.04  -0.10   0.05    -0.09   0.00   0.03    -0.26   0.11  -0.01
    29   1     0.03   0.04  -0.10    -0.14  -0.02   0.05    -0.21   0.06   0.04
    30   6    -0.26  -0.20  -0.46     0.03   0.00  -0.07     0.00   0.08  -0.15
    31   1    -0.03  -0.07  -0.17     0.06   0.00  -0.11     0.05   0.08  -0.24
    32   1    -0.01   0.05   0.08     0.00   0.05  -0.06    -0.04   0.14  -0.14
    33   8     0.01  -0.01  -0.01    -0.11   0.04  -0.29     0.12   0.00   0.11
    34   1     0.05  -0.04   0.04    -0.05  -0.05  -0.18     0.02   0.00  -0.01
    35   1     0.00   0.01   0.02    -0.11   0.14  -0.13     0.17   0.00   0.11
    36   8     0.01   0.00   0.00     0.13   0.27   0.11     0.22  -0.01   0.10
    37   1    -0.03   0.03   0.04     0.26   0.47  -0.06     0.32  -0.05  -0.02
    38   1     0.13   0.11  -0.01    -0.02   0.09   0.12     0.06  -0.01   0.03
                      4                      5                      6
                      A                      A                      A
 Frequencies --     55.5779                58.6457                69.1486
 Red. masses --      4.3281                 3.4923                 5.6967
 Frc consts  --      0.0079                 0.0071                 0.0160
 IR Inten    --      1.3661                10.7741                 4.7951
  Atom  AN      X      Y      Z        X      Y      Z        X      Y      Z
     1   6     0.00   0.06   0.16    -0.05  -0.03  -0.09     0.13   0.02   0.05
     2   6     0.00   0.05   0.13    -0.04  -0.02  -0.08     0.09   0.01   0.06
     3   6    -0.02   0.03   0.02    -0.03  -0.01  -0.01     0.05   0.03   0.01
     4   6    -0.03   0.02  -0.04    -0.03  -0.01   0.04     0.06   0.06  -0.03
     5   6    -0.02   0.02  -0.04    -0.03  -0.01   0.04     0.09   0.07  -0.05
     6   6    -0.01   0.04   0.07    -0.04  -0.02  -0.03     0.13   0.05   0.00
     7   1     0.01   0.08   0.26    -0.06  -0.04  -0.15     0.15   0.01   0.10
     8   1     0.00   0.06   0.20    -0.05  -0.03  -0.12     0.08  -0.01   0.10
     9   1    -0.03   0.00  -0.11    -0.03   0.00   0.09     0.09   0.09  -0.09
    10   1    -0.01   0.04   0.08    -0.05  -0.02  -0.03     0.16   0.06  -0.01
    11   6    -0.03   0.01  -0.07    -0.02  -0.01   0.05     0.03   0.09  -0.02
    12   6    -0.03   0.02  -0.01    -0.03  -0.01   0.02     0.01   0.02   0.01
    13   6    -0.03   0.02  -0.02    -0.02  -0.01   0.05     0.00   0.09   0.04
    14   1    -0.02   0.05   0.04    -0.03  -0.01   0.02    -0.02   0.12   0.05
    15   6    -0.03   0.02  -0.03    -0.02   0.00   0.05    -0.02   0.05   0.03
    16   1    -0.03   0.02  -0.03    -0.02   0.00   0.06    -0.05   0.05   0.04
    17   8    -0.03   0.01  -0.11    -0.02  -0.01   0.04     0.04   0.12  -0.02
    18  17    -0.03   0.01  -0.04    -0.03  -0.01   0.01    -0.01  -0.04   0.00
    19   6     0.00  -0.06  -0.04     0.04   0.05  -0.06    -0.10   0.00   0.03
    20   6    -0.07  -0.07   0.07     0.01   0.04  -0.04    -0.08   0.02   0.10
    21   1    -0.11   0.01   0.13    -0.03   0.06  -0.06    -0.06   0.04   0.16
    22   6     0.02   0.06  -0.09     0.04   0.09  -0.13    -0.08   0.01   0.08
    23   1     0.04   0.08  -0.11     0.14   0.41  -0.16    -0.08   0.20   0.10
    24   1    -0.05   0.12  -0.07    -0.12  -0.03  -0.37    -0.14  -0.06  -0.04
    25   1     0.08   0.08  -0.12     0.10  -0.04   0.13    -0.02  -0.06   0.23
    26   6     0.06  -0.18  -0.12     0.13   0.05   0.00    -0.14  -0.04  -0.02
    27   1     0.06  -0.24  -0.11     0.13   0.03   0.07    -0.14  -0.02  -0.04
    28   1     0.06  -0.26  -0.10     0.20   0.07  -0.03    -0.16  -0.08   0.00
    29   1     0.12  -0.15  -0.22     0.14   0.05  -0.01    -0.15  -0.03  -0.06
    30   6    -0.09  -0.14   0.10     0.00   0.01   0.00    -0.09   0.01   0.06
    31   1    -0.14  -0.14   0.19    -0.03   0.00   0.02    -0.08   0.02   0.10
    32   1    -0.07  -0.24   0.02     0.04  -0.01   0.04    -0.11   0.00   0.02
    33   8     0.13   0.05   0.12    -0.13  -0.07  -0.02    -0.16  -0.13  -0.17
    34   1     0.01   0.02  -0.02    -0.06  -0.02   0.03    -0.01   0.14  -0.10
    35   1     0.15   0.05   0.11    -0.02  -0.05   0.05     0.05  -0.21  -0.22
    36   8     0.16   0.02   0.03     0.23  -0.02   0.13     0.12  -0.27  -0.08
    37   1     0.25  -0.06  -0.07     0.44   0.10  -0.15     0.14  -0.16  -0.12
    38   1     0.01   0.03  -0.03    -0.04  -0.06   0.03     0.13  -0.15  -0.12
                      7                      8                      9
                      A                      A                      A
 Frequencies --     82.6956                85.5815               107.6203
 Red. masses --      1.1560                 4.9053                 4.0219
 Frc consts  --      0.0047                 0.0212                 0.0274
 IR Inten    --      7.4712                 2.5324                 3.3692
  Atom  AN      X      Y      Z        X      Y      Z        X      Y      Z
     1   6     0.00   0.00   0.01    -0.03   0.01   0.00    -0.03   0.01   0.07
     2   6     0.01   0.01   0.01     0.00   0.02  -0.03     0.01   0.05   0.24
     3   6     0.01   0.00   0.00     0.03  -0.01  -0.04     0.01   0.01   0.11
     4   6     0.01   0.00   0.00     0.02  -0.05  -0.03    -0.01  -0.03  -0.02
     5   6     0.00   0.00  -0.01    -0.01  -0.06   0.00    -0.06  -0.08  -0.23
     6   6     0.00   0.00   0.00    -0.04  -0.03   0.02    -0.07  -0.07  -0.22
     7   1     0.00   0.01   0.01    -0.06   0.03   0.01    -0.03   0.03   0.15
     8   1     0.01   0.01   0.02     0.01   0.05  -0.04     0.04   0.11   0.47
     9   1     0.00   0.00  -0.01    -0.02  -0.08   0.02    -0.08  -0.13  -0.39
    10   1     0.00   0.00  -0.01    -0.07  -0.03   0.04    -0.11  -0.11  -0.42
    11   6     0.01   0.00   0.00     0.04  -0.08  -0.03     0.00  -0.03   0.03
    12   6     0.01   0.00   0.00     0.06  -0.01  -0.07     0.01   0.00   0.06
    13   6     0.01   0.00   0.01     0.06  -0.08  -0.11     0.01  -0.03   0.02
    14   1     0.01   0.00  -0.01     0.10  -0.10  -0.08     0.02  -0.04   0.02
    15   6     0.01   0.00   0.00     0.07  -0.06  -0.16     0.02  -0.02   0.01
    16   1     0.01   0.00   0.00     0.09  -0.07  -0.23     0.02  -0.03  -0.04
    17   8     0.01   0.00   0.01     0.05  -0.06   0.05     0.00  -0.03   0.06
    18  17     0.01   0.00   0.00     0.10   0.08   0.10     0.00  -0.01  -0.08
    19   6    -0.03  -0.03  -0.02    -0.03   0.07   0.06     0.02   0.06   0.02
    20   6     0.00  -0.02  -0.01    -0.15   0.03   0.08     0.01   0.06   0.00
    21   1     0.01  -0.02   0.00    -0.20   0.11   0.14     0.00   0.05  -0.02
    22   6    -0.02  -0.03   0.00     0.01   0.22   0.05     0.02   0.07   0.01
    23   1     0.09   0.55   0.00     0.02   0.30   0.05     0.03   0.07   0.00
    24   1    -0.21  -0.29  -0.41    -0.08   0.28   0.05     0.01   0.07   0.00
    25   1     0.11  -0.29   0.51     0.11   0.23   0.05     0.02   0.07   0.01
    26   6    -0.03  -0.02  -0.01     0.05  -0.02   0.03     0.03   0.08   0.04
    27   1    -0.03   0.01   0.02     0.05  -0.14   0.01     0.03   0.15   0.12
    28   1     0.00  -0.02  -0.02     0.01  -0.01   0.04     0.13   0.01   0.02
    29   1    -0.06  -0.02  -0.01     0.17   0.01   0.02    -0.06   0.06  -0.03
    30   6     0.00  -0.01  -0.02    -0.20  -0.11   0.01     0.01   0.05   0.01
    31   1     0.01   0.00  -0.02    -0.28  -0.13   0.03    -0.01   0.04  -0.02
    32   1    -0.01   0.01  -0.01    -0.19  -0.21  -0.07     0.02   0.05   0.02
    33   8     0.03   0.02   0.02    -0.07  -0.04  -0.08     0.01  -0.03  -0.05
    34   1     0.03   0.00   0.03     0.03  -0.06   0.05     0.03  -0.01  -0.03
    35   1     0.06   0.04   0.08    -0.11  -0.01  -0.04     0.04  -0.03  -0.04
    36   8    -0.04   0.04  -0.01    -0.06   0.03  -0.02    -0.03  -0.02   0.06
    37   1    -0.09  -0.04   0.05    -0.10   0.09   0.02    -0.04  -0.02   0.08
    38   1     0.00   0.02   0.01     0.00  -0.03   0.03     0.00  -0.03   0.07
                     10                     11                     12
                      A                      A                      A
 Frequencies --    120.4911               126.9466               133.6079
 Red. masses --      1.5757                 2.6065                 2.2346
 Frc consts  --      0.0135                 0.0247                 0.0235
 IR Inten    --     32.9642                 8.7789                28.2880
  Atom  AN      X      Y      Z        X      Y      Z        X      Y      Z
     1   6     0.01   0.00   0.01    -0.05   0.00  -0.01    -0.01   0.01   0.01
     2   6     0.01   0.00   0.03    -0.03   0.00   0.00    -0.02   0.00  -0.02
     3   6     0.01   0.00   0.00    -0.02   0.00   0.02    -0.03   0.00  -0.02
     4   6     0.00   0.00  -0.03    -0.02  -0.02   0.03    -0.03   0.01  -0.01
     5   6     0.00   0.00  -0.04    -0.03  -0.02   0.02    -0.01   0.02   0.01
     6   6     0.01   0.00  -0.03    -0.05  -0.02   0.00     0.00   0.02   0.03
     7   1     0.02   0.00   0.04    -0.06   0.00  -0.03     0.00   0.00   0.01
     8   1     0.02   0.01   0.06    -0.03   0.01   0.00    -0.03  -0.01  -0.04
     9   1     0.00  -0.01  -0.06    -0.03  -0.02   0.03     0.00   0.04   0.02
    10   1     0.01   0.00  -0.04    -0.06  -0.02  -0.01     0.00   0.02   0.06
    11   6     0.00   0.01  -0.04    -0.01  -0.03   0.03    -0.02   0.00  -0.01
    12   6     0.00   0.00   0.00    -0.01   0.00   0.02    -0.03   0.01  -0.01
    13   6    -0.01   0.00  -0.02     0.00  -0.03   0.03    -0.02   0.00  -0.01
    14   1    -0.01   0.02   0.00     0.01  -0.03   0.03    -0.02   0.01   0.01
    15   6    -0.01   0.00  -0.01     0.01  -0.01   0.03    -0.02   0.00   0.00
    16   1    -0.01   0.00   0.00     0.02  -0.01   0.03    -0.02   0.01   0.01
    17   8     0.00   0.01  -0.05    -0.01  -0.03   0.02    -0.03  -0.01  -0.02
    18  17    -0.01  -0.02   0.00     0.00   0.02  -0.01    -0.03   0.02   0.00
    19   6     0.04  -0.01   0.03     0.00   0.01   0.06     0.03   0.01   0.02
    20   6     0.02  -0.02   0.00    -0.01   0.01   0.03     0.01   0.00   0.00
    21   1     0.02  -0.02  -0.01    -0.02  -0.01   0.00     0.00   0.00  -0.03
    22   6     0.03  -0.01   0.03    -0.02  -0.01   0.03     0.02   0.01   0.00
    23   1     0.04   0.05   0.03     0.01   0.03   0.00     0.05   0.08  -0.01
    24   1     0.02  -0.04  -0.01    -0.06  -0.05  -0.04    -0.01  -0.03  -0.06
    25   1     0.04  -0.04   0.08    -0.06  -0.04   0.07     0.02  -0.03   0.06
    26   6     0.02   0.00   0.02     0.00   0.05   0.09     0.04   0.02   0.04
    27   1     0.02  -0.36  -0.35    -0.01  -0.05  -0.01     0.03  -0.27  -0.23
    28   1    -0.41   0.35   0.07    -0.12   0.18   0.09    -0.28   0.31   0.07
    29   1     0.41   0.05   0.37     0.10   0.05   0.22     0.34   0.06   0.31
    30   6     0.03  -0.01   0.02    -0.01   0.00   0.04     0.01  -0.01   0.03
    31   1     0.03  -0.01   0.01    -0.02   0.00   0.02     0.00  -0.01   0.02
    32   1     0.03  -0.02   0.01    -0.01   0.00   0.04     0.02  -0.02   0.02
    33   8    -0.12  -0.01   0.08     0.13   0.06  -0.05     0.15  -0.01  -0.16
    34   1    -0.04   0.00   0.17     0.10   0.03  -0.06     0.08   0.01  -0.25
    35   1    -0.17  -0.01   0.07     0.03   0.02  -0.13     0.28   0.01  -0.09
    36   8     0.00   0.05  -0.03     0.09  -0.02  -0.22    -0.03  -0.08   0.12
    37   1     0.00   0.09  -0.03     0.37   0.15  -0.58    -0.15  -0.28   0.28
    38   1     0.01   0.02  -0.02    -0.28  -0.19  -0.30     0.08   0.01   0.14
                     13                     14                     15
                      A                      A                      A
 Frequencies --    145.1455               177.7114               188.4391
 Red. masses --      3.2772                 2.8866                 4.4965
 Frc consts  --      0.0407                 0.0537                 0.0941
 IR Inten    --    223.1504                 1.2049                25.7735
  Atom  AN      X      Y      Z        X      Y      Z        X      Y      Z
     1   6    -0.02   0.00   0.02     0.06   0.01   0.05     0.02  -0.01  -0.13
     2   6    -0.03  -0.01  -0.02     0.02  -0.01  -0.01     0.02   0.03   0.09
     3   6    -0.04  -0.01  -0.05    -0.01   0.00  -0.08     0.01   0.06   0.15
     4   6    -0.03   0.00  -0.05    -0.01   0.02  -0.09     0.01   0.08   0.16
     5   6    -0.03   0.01  -0.02     0.03   0.03  -0.08     0.04   0.08   0.10
     6   6    -0.02   0.01   0.03     0.06   0.03   0.00     0.03   0.02  -0.13
     7   1    -0.02   0.01   0.06     0.09   0.02   0.14     0.02  -0.06  -0.30
     8   1    -0.03  -0.01  -0.03     0.02  -0.03   0.01     0.02   0.02   0.16
     9   1    -0.03   0.01  -0.03     0.03   0.05  -0.12     0.05   0.12   0.16
    10   1    -0.01   0.02   0.07     0.09   0.04   0.03     0.03  -0.01  -0.29
    11   6    -0.03   0.00  -0.07    -0.01   0.03  -0.04    -0.01   0.05   0.04
    12   6    -0.04  -0.02  -0.04    -0.02   0.00  -0.07    -0.02   0.03   0.02
    13   6    -0.06  -0.02  -0.09    -0.01   0.03  -0.03    -0.03   0.01  -0.11
    14   1    -0.03   0.02   0.00     0.00   0.05   0.01    -0.04  -0.02  -0.18
    15   6    -0.04  -0.01  -0.05    -0.02   0.01  -0.06    -0.05  -0.01  -0.18
    16   1    -0.05  -0.01  -0.03    -0.02   0.01  -0.06    -0.07  -0.06  -0.37
    17   8    -0.04   0.00  -0.12    -0.02   0.00   0.02     0.00   0.06   0.07
    18  17    -0.05  -0.02   0.02    -0.01   0.01   0.02    -0.04  -0.01   0.00
    19   6     0.13   0.05   0.15     0.01  -0.01   0.07     0.02  -0.08   0.01
    20   6     0.09   0.00   0.04    -0.02  -0.03   0.03    -0.02  -0.10  -0.05
    21   1     0.08  -0.01   0.00    -0.05  -0.03  -0.02    -0.02  -0.11  -0.05
    22   6     0.13   0.05   0.19    -0.08  -0.12  -0.12     0.05  -0.05   0.05
    23   1     0.14   0.21   0.21     0.06  -0.16  -0.23     0.02  -0.04   0.07
    24   1     0.11  -0.03   0.08    -0.13  -0.18  -0.22     0.05  -0.03   0.07
    25   1     0.18  -0.03   0.34    -0.25  -0.14  -0.11     0.08  -0.04   0.04
    26   6     0.07   0.00   0.03     0.09   0.09   0.22     0.10  -0.09   0.07
    27   1     0.07   0.27   0.23     0.10   0.22   0.43     0.10  -0.12   0.14
    28   1     0.31  -0.33   0.05     0.34   0.09   0.15     0.16  -0.05   0.05
    29   1    -0.21  -0.03  -0.25    -0.06   0.05   0.20     0.13  -0.08   0.08
    30   6     0.11   0.01   0.07    -0.04  -0.07   0.03    -0.04  -0.10  -0.13
    31   1     0.08  -0.01   0.01    -0.07  -0.08   0.06    -0.01  -0.10  -0.14
    32   1     0.08  -0.02   0.01    -0.02  -0.12   0.01    -0.05  -0.08  -0.12
    33   8    -0.05   0.02  -0.03     0.00  -0.03   0.04    -0.03   0.15  -0.02
    34   1    -0.06   0.07  -0.07     0.00  -0.01   0.03    -0.01   0.11   0.02
    35   1     0.07   0.02   0.02    -0.06  -0.07  -0.05    -0.04   0.17   0.00
    36   8     0.01  -0.02  -0.05    -0.02   0.02   0.02     0.00  -0.09   0.02
    37   1    -0.03  -0.15   0.01     0.02   0.13  -0.03     0.08  -0.07  -0.09
    38   1     0.01  -0.04  -0.03    -0.03  -0.03   0.03    -0.10   0.00  -0.05
                     16                     17                     18
                      A                      A                      A
 Frequencies --    201.7419               211.3634               217.4355
 Red. masses --      5.3947                 2.6092                 5.6199
 Frc consts  --      0.1294                 0.0687                 0.1565
 IR Inten    --     22.4554                78.9154                 4.7058
  Atom  AN      X      Y      Z        X      Y      Z        X      Y      Z
     1   6    -0.03   0.02   0.11    -0.01   0.06   0.06     0.16  -0.15   0.04
     2   6    -0.01   0.00  -0.05    -0.02   0.04  -0.04     0.04  -0.18   0.02
     3   6     0.01  -0.05  -0.12    -0.01   0.02  -0.08    -0.08  -0.08   0.00
     4   6     0.01  -0.07  -0.11    -0.02   0.02  -0.06    -0.05  -0.02  -0.02
     5   6    -0.04  -0.08  -0.09    -0.02   0.02  -0.08     0.08   0.01  -0.05
     6   6    -0.05  -0.02   0.06    -0.02   0.05   0.02     0.18  -0.06   0.00
     7   1    -0.04   0.07   0.25     0.00   0.08   0.16     0.23  -0.20   0.09
     8   1    -0.01   0.02  -0.08    -0.02   0.03  -0.05     0.02  -0.23   0.02
     9   1    -0.05  -0.13  -0.15    -0.03   0.01  -0.13     0.10   0.11  -0.09
    10   1    -0.06  -0.01   0.15    -0.01   0.05   0.06     0.27  -0.04   0.01
    11   6     0.01  -0.03   0.01     0.00   0.03   0.04    -0.06  -0.01   0.02
    12   6     0.03  -0.03  -0.06    -0.02   0.02  -0.06    -0.08  -0.06   0.02
    13   6     0.04  -0.01   0.07     0.01   0.03   0.03    -0.06  -0.02   0.02
    14   1     0.04  -0.02   0.05    -0.01   0.02  -0.01    -0.08  -0.01   0.01
    15   6     0.03   0.00   0.04    -0.02   0.03  -0.02    -0.06  -0.06   0.05
    16   1     0.04   0.01   0.11    -0.01   0.03  -0.01    -0.06  -0.05   0.09
    17   8     0.03   0.04   0.08     0.01   0.01   0.16    -0.06  -0.04   0.04
    18  17     0.05  -0.02   0.02    -0.04  -0.06   0.04    -0.01   0.26  -0.06
    19   6    -0.01  -0.01  -0.03     0.00  -0.04  -0.04     0.01  -0.01  -0.01
    20   6     0.02   0.00  -0.01     0.02  -0.03  -0.03     0.01  -0.02  -0.05
    21   1     0.02  -0.01   0.00     0.05  -0.04  -0.01     0.01  -0.04  -0.08
    22   6    -0.01  -0.03  -0.03     0.06   0.03   0.06     0.04   0.03   0.06
    23   1    -0.01  -0.02  -0.03    -0.01   0.07   0.12     0.00   0.08   0.10
    24   1    -0.01  -0.03  -0.04     0.07   0.06   0.11     0.05   0.05   0.07
    25   1    -0.01  -0.03  -0.03     0.17   0.04   0.06     0.12   0.03   0.07
    26   6     0.00   0.00   0.00     0.04  -0.07  -0.03     0.00  -0.04  -0.05
    27   1     0.00  -0.02  -0.01     0.04  -0.13  -0.05     0.00  -0.04  -0.05
    28   1    -0.01   0.05  -0.01     0.02  -0.06  -0.03    -0.01  -0.08  -0.03
    29   1     0.02   0.01   0.04     0.10  -0.06  -0.03     0.01  -0.03  -0.08
    30   6     0.01   0.00  -0.03     0.02   0.01  -0.09     0.02   0.01  -0.02
    31   1     0.02   0.01  -0.01     0.08   0.03  -0.09     0.04   0.01  -0.05
    32   1     0.02   0.03   0.01     0.01   0.08  -0.04     0.03   0.05   0.01
    33   8    -0.12   0.39  -0.02     0.07  -0.06   0.00    -0.01   0.02   0.01
    34   1    -0.10   0.21   0.06     0.22   0.01   0.15     0.10   0.01   0.15
    35   1    -0.14   0.51   0.12    -0.18  -0.16  -0.26    -0.19   0.00  -0.10
    36   8     0.01  -0.19   0.07    -0.04  -0.02   0.02    -0.05  -0.05   0.06
    37   1     0.11  -0.33  -0.06     0.12   0.62  -0.21     0.19   0.30  -0.26
    38   1    -0.11   0.12  -0.11    -0.09  -0.17   0.06    -0.28  -0.10  -0.01
                     19                     20                     21
                      A                      A                      A
 Frequencies --    241.5596               253.2416               268.1741
 Red. masses --      1.2756                 2.0898                 2.5479
 Frc consts  --      0.0439                 0.0790                 0.1080
 IR Inten    --     78.7944                23.3546                 4.5590
  Atom  AN      X      Y      Z        X      Y      Z        X      Y      Z
     1   6     0.02   0.01   0.02     0.01   0.01  -0.03     0.00   0.03  -0.02
     2   6     0.01   0.00  -0.01     0.01   0.02   0.01     0.01   0.03  -0.01
     3   6     0.00   0.00  -0.02     0.01   0.02   0.02     0.02   0.03   0.01
     4   6     0.00   0.01  -0.02     0.00   0.01   0.01     0.01   0.01  -0.01
     5   6     0.01   0.01  -0.03     0.01   0.02   0.03     0.01   0.01   0.00
     6   6     0.02   0.01   0.00     0.01   0.01  -0.01     0.00   0.02   0.01
     7   1     0.03   0.01   0.06     0.00   0.00  -0.08     0.00   0.03  -0.04
     8   1     0.00  -0.01  -0.01     0.01   0.02   0.03     0.01   0.03  -0.01
     9   1     0.01   0.01  -0.04     0.02   0.03   0.06     0.01   0.01   0.01
    10   1     0.02   0.01   0.00     0.01   0.01  -0.02     0.00   0.03   0.02
    11   6     0.00   0.01   0.02    -0.01   0.00  -0.04     0.01   0.00  -0.03
    12   6     0.00   0.01  -0.02     0.03   0.02   0.00     0.01   0.03   0.05
    13   6     0.01   0.01   0.02     0.02   0.01  -0.04     0.00  -0.01  -0.01
    14   1     0.00   0.01   0.00     0.04   0.01  -0.01    -0.01   0.02   0.03
    15   6     0.00   0.01   0.00     0.03   0.02  -0.03     0.01   0.03   0.07
    16   1     0.00   0.01   0.00     0.02   0.01  -0.05     0.03   0.05   0.14
    17   8     0.00   0.00   0.06    -0.04  -0.06  -0.08     0.02  -0.02  -0.02
    18  17     0.00   0.00   0.01     0.03  -0.04   0.00     0.00  -0.02  -0.01
    19   6    -0.01  -0.02  -0.01     0.02   0.04   0.07     0.02   0.00  -0.12
    20   6     0.00  -0.01  -0.01     0.03   0.03   0.07    -0.03  -0.02  -0.15
    21   1     0.01  -0.02  -0.01     0.05   0.04   0.11    -0.15   0.02  -0.24
    22   6     0.01   0.01   0.02    -0.03   0.01  -0.05     0.07  -0.02   0.09
    23   1    -0.02  -0.04   0.04     0.07   0.03  -0.12    -0.08   0.00   0.21
    24   1     0.02   0.05   0.07    -0.10  -0.03  -0.14     0.18  -0.03   0.16
    25   1     0.03   0.04  -0.04    -0.11  -0.01  -0.03     0.16  -0.03   0.12
    26   6     0.01  -0.02   0.01    -0.04  -0.01  -0.04    -0.04   0.14  -0.01
    27   1     0.01  -0.05   0.01    -0.04   0.00  -0.10    -0.04   0.25   0.03
    28   1     0.01   0.00   0.00    -0.11  -0.09   0.00     0.02   0.21  -0.05
    29   1     0.04  -0.02   0.01    -0.05  -0.01  -0.09    -0.16   0.10   0.07
    30   6     0.00   0.01  -0.03     0.03   0.05   0.04    -0.05  -0.18   0.09
    31   1     0.03   0.02  -0.04     0.04   0.04   0.00    -0.23  -0.21   0.27
[...]
 15,-0.00141694,-0.00060367,-0.00042460,0.00010856,-0.00007797,-0.00000
 166,-0.00040563,-0.00124316,0.00096856,-0.00012563,0.00008404,-0.00008
 929,-0.00013783,0.00016976,-0.00002121,-0.00116125,0.00138627,-0.00143
 280,-0.00039559,-0.00001425,-0.00063634,-0.00004064,-0.00005615,0.0002
 5206,0.00003025,0.00000985,0.00009262,0.00026721,0.00001089,0.00020808
 ,0.00129936,-0.00023432,0.00106976,-0.00004932,-0.00008914,-0.00007860
 ,-0.00010270,0.00005987,-0.00004378,-0.10259653,-0.02146718,0.08663518
 ,0.11942325,-0.00021424,-0.00015159,-0.00001614,0.00007393,0.00009496,
 0.00002101,-0.00010486,-0.00026117,-0.00005381,0.00089686,-0.00087714,
 -0.00030985,0.00065642,0.00090574,0.00019286,0.00031724,-0.00039188,-0
 .00012600,-0.00007870,0.00004825,0.00002152,-0.00008156,-0.00002451,0.
 00000705,0.00087162,-0.00035148,-0.00069091,0.00001539,0.00004413,0.00
 001081,-0.01153985,-0.00134266,-0.00044679,-0.00035472,-0.00014205,-0.
 00001261,0.00190256,0.00255279,0.00002549,0.00018922,-0.00032541,-0.00
 011162,-0.00040254,0.00030143,0.00016700,0.00004126,-0.00013470,-0.000
 04151,0.00523302,-0.00597437,0.00007526,0.00041381,0.00012195,-0.00004
 105,0.00107069,-0.00174545,0.00299880,-0.00005549,0.00091135,-0.000559
 25,0.00019839,-0.00022936,-0.00001909,-0.00114252,0.00032836,-0.000768
 74,0.00018440,-0.00000654,0.00019467,0.00026639,-0.00019147,0.00001774
 ,0.00096830,0.00012659,0.00048656,0.00001077,-0.00003995,-0.00144873,-
 0.00015408,-0.00002600,0.00028687,0.00004466,-0.00003741,0.00020340,0.
 00004498,0.00020430,0.00037765,0.00046674,-0.00013492,0.00093146,-0.00
 008377,-0.00023271,-0.00012035,-0.00019527,0.00010144,0.00007290,-0.04
 363468,-0.03531573,0.02922402,0.01767790,0.04249549,0.00019108,0.00036
 506,0.00006581,-0.00013627,-0.00029287,-0.00003999,-0.00018992,0.00013
 373,0.00008235,-0.00027789,0.00036722,0.00000892,0.00202855,0.00041625
 ,-0.00024692,-0.00079091,0.00001043,0.00012814,0.00004887,-0.00010192,
 -0.00003318,0.00015396,0.00003377,-0.00001739,-0.00288895,-0.00027281,
 0.00083876,-0.00006644,-0.00019987,-0.00004062,0.00301455,0.00042776,0
 .00034782,0.00029185,0.00014768,-0.00001332,-0.00085170,-0.00077790,-0
 .00024188,-0.00011559,0.00013861,0.00013001,0.00026920,-0.00015280,-0.
 00005698,0.00000482,0.00009694,0.00002096,-0.00376065,-0.00559590,-0.0
 0131603,-0.00031313,-0.00012207,0.00003491,-0.00029939,0.00219724,-0.0
 0094028,-0.00046803,-0.00103830,0.00008783,-0.00012808,0.00011714,0.00
 004419,0.00067622,-0.00044933,0.00012367,-0.00014291,0.00004763,-0.000
 13532,-0.00010296,0.00008742,0.00005185,-0.00054623,-0.00001274,0.0002
 5466,0.00011400,-0.00057808,0.00140865,0.00017745,0.00013430,-0.000361
 19,-0.00001403,0.00000997,-0.00020938,-0.00017295,0.00000843,-0.001194
 91,0.00041255,0.00000241,-0.00007381,0.00002750,0.00012863,0.00000411,
 0.00007739,0.00000935,-0.00009607,0.07900092,0.00836581,-0.07639659,-0
 .10114683,-0.00359224,0.10099330,-0.00009827,-0.00008742,-0.00001034,0
 .00000513,0.00010961,0.00001909,-0.00001007,-0.00018302,-0.00002720,0.
 00037694,-0.00025424,-0.00003453,-0.00011121,0.00018038,0.00005656,0.0
 0015110,-0.00007499,-0.00003169,-0.00001380,0.00001266,0.00000401,-0.0
 0002252,-0.00000765,0.00000084,-0.00023208,0.00012153,0.00014113,0.000
 00765,0.00001925,0.00000168,-0.00238136,-0.00073658,-0.00021269,-0.000
 09097,0.00009814,0.00002411,0.00008877,0.00076860,-0.00024897,0.000040
 46,-0.00006619,0.00001739,0.00006456,0.00002006,0.00002108,0.00000227,
 -0.00002303,-0.00001119,0.00053393,0.00021704,-0.00034297,0.00007328,0
 .00001453,-0.00000123,0.00063904,0.00022509,0.00036543,-0.00042612,-0.
 00024566,-0.00010320,0.00002711,-0.00002254,0.00000634,-0.00017246,-0.
 00022268,0.00024142,-0.00005136,0.00002048,-0.00000910,-0.00007349,0.0
 0005627,0.00000085,0.00001954,0.00013779,-0.00022031,-0.00002768,-0.00
 005861,-0.00018574,-0.00001730,0.00000237,0.00003096,0.00001031,-0.000
 00496,0.00002230,0.00002366,0.00002138,0.00004339,0.00050411,-0.000049
 82,0.00039883,-0.00002348,-0.00002898,-0.00004981,-0.00004048,0.000033
 00,-0.00001759,-0.02324897,0.00964277,0.02261099,-0.01481862,0.0262545
 2,0.02648154,0.04095750,0.00001198,0.00007390,0.00001033,-0.00000217,-
 0.00007604,-0.00002277,-0.00011683,-0.00002728,0.00001197,0.00052596,-
 0.00025555,0.00003282,-0.00040149,0.00015871,0.00019385,-0.00012820,-0
 .00007704,-0.00002019,-0.00001098,-0.00001151,0.00000304,0.00001445,0.
 00000177,0.00000018,0.00062657,-0.00010737,-0.00017609,-0.00002873,-0.
 00004283,-0.00000232,-0.00231417,-0.00047671,-0.00007604,-0.00002325,-
 0.00005047,-0.00001650,0.00031078,0.00049259,-0.00017348,-0.00006355,-
 0.00015935,-0.00001355,-0.00011046,0.00001068,0.00004857,0.00001018,-0
 .00002211,-0.00001373,0.00228991,-0.00237372,-0.00171349,0.00006224,0.
 00001930,-0.00000270,-0.00009005,0.00000642,0.00098384,0.00007893,0.00
 023105,-0.00032691,0.00003735,-0.00010884,0.00003983,-0.00042471,-0.00
 039167,-0.00082892,0.00007676,0.00003202,0.00002744,0.00029332,-0.0001
 7655,0.00023970,0.00003599,0.00087702,-0.00004838,0.00011848,-0.000189
 43,-0.00007535,-0.00000418,0.00002958,-0.00003688,0.00001667,-0.000013
 46,0.00002033,-0.00003275,0.00004746,-0.00011615,0.00010797,-0.0000223
 9,0.00023306,-0.00001991,-0.00005697,-0.00004723,-0.00004480,0.0000421
 9,0.00001741,0.03122567,-0.12827536,-0.08010104,0.00083403,0.00254034,
 -0.00077831,-0.03126555,0.12621313,0.00007395,0.00012602,0.00001390,-0
 .00005344,-0.00006455,-0.00000795,-0.00003139,0.00005252,0.00002059,-0
 .00040322,0.00024299,0.00008741,-0.00012893,-0.00016073,-0.00001299,-0
 .00022596,0.00008603,0.00004313,0.00003020,-0.00004018,-0.00001136,0.0
 0005566,0.00001420,-0.00000462,0.00055026,-0.00018093,-0.00018745,-0.0
 0004052,-0.00007248,-0.00000617,0.00210317,0.00039991,0.00025847,0.000
 14839,0.00010950,0.00000645,-0.00059655,-0.00061739,-0.00018170,-0.000
 09455,0.00007472,0.00005591,0.00020488,-0.00009454,-0.00005376,-0.0000
 0332,0.00005206,0.00001108,-0.00124201,-0.00114896,-0.00103973,-0.0001
 7608,-0.00005496,0.00002729,0.00061610,0.00126855,-0.00120002,-0.00054
 002,-0.00073128,0.00008249,-0.00007353,0.00010032,0.00002648,0.0004646
 6,-0.00119000,0.00117944,-0.00022073,0.00005375,-0.00020705,-0.0002620
 7,0.00029419,-0.00000730,-0.00130872,0.00098457,-0.00168275,-0.0001447
 6,-0.00008269,0.00073389,0.00007116,0.00002693,-0.00011503,-0.00000960
 ,0.00002742,-0.00009915,-0.00000689,-0.00005364,-0.00026277,0.00023867
 ,-0.00002272,-0.00009920,0.00002248,0.00009724,0.00002676,0.00006408,-
 0.00002465,-0.00006385,0.03132904,-0.05916222,-0.05882472,0.01693347,-
 0.02573570,-0.02410430,-0.04665723,0.07869177,0.08400463,0.00010871,0.
 00009811,0.00000743,-0.00000566,-0.00011592,-0.00000766,0.00006161,0.0
 0023077,0.00002494,-0.00056870,0.00046473,-0.00012283,-0.00001172,-0.0
 0024481,-0.00005633,-0.00016159,0.00008470,0.00004050,0.00001640,-0.00
 001504,-0.00000615,0.00002351,0.00000811,-0.00000204,0.00000264,-0.000
 03515,-0.00000381,-0.00001038,-0.00002411,0.00000085,0.00291343,0.0012
 0160,0.00082610,0.00010604,-0.00011016,-0.00002556,-0.00004947,-0.0010
 6698,0.00044875,0.00001377,0.00023639,0.00000141,-0.00002661,0.0000145
 5,-0.00004798,-0.00000523,0.00003849,0.00002309,-0.00560076,0.00124862
 ,0.00574498,-0.00010745,-0.00002303,-0.00000508,-0.00074196,-0.0003273
 7,-0.00036592,0.00063771,0.00035391,0.00017519,-0.00004876,0.00004023,
 -0.00000319,0.00002005,0.00002546,-0.00082941,0.00005384,0.00000008,-0
 .00003480,0.00015837,-0.00004057,0.00026454,0.00005401,0.00004789,0.00
 014392,0.00001094,0.00009811,0.00023188,0.00002832,-0.00001150,-0.0000
 3376,-0.00001324,0.00001052,-0.00003281,-0.00001289,-0.00003122,-0.000
 02796,-0.00071660,0.00008080,-0.00058182,0.00003709,0.00004296,0.00007
 387,0.00005845,-0.00004342,0.00001512,0.00152299,-0.00162953,-0.001312
 71,-0.00036607,-0.00062496,-0.00008473,-0.00251588,0.00476661,0.002114
 52,0.17739060,-0.00004076,-0.00006198,-0.00001035,-0.00000642,0.000047
 29,0.00000858,0.00001188,-0.00006556,-0.00000562,0.00005163,-0.0001222
 2,0.00001776,0.00005035,0.00005158,-0.00001752,0.00010009,-0.00001302,
 -0.00000032,-0.00000394,0.00001009,0.00000006,-0.00000857,-0.00000251,
 -0.00000003,-0.00014430,0.00005690,0.00003352,0.00001667,0.00002270,-0
 .00000425,-0.00014375,-0.00003434,-0.00019881,-0.00002245,0.00004710,0
 .00000854,0.00005248,0.00029328,-0.00027435,0.00003868,0.00011951,0.00
 016714,0.00002865,0.00002585,-0.00001596,-0.00001004,0.00000883,0.0000
 1158,-0.00154343,0.00389840,0.00114183,0.00002338,-0.00001966,-0.00000
 525,-0.00005590,-0.00026895,0.00004452,-0.00013673,-0.00023480,0.00016
 812,-0.00000122,0.00007044,-0.00000067,0.00002281,0.00067951,-0.000257
 29,0.00004124,-0.00005323,0.00005825,0.00000132,-0.00015762,-0.0000373
 0,0.00023318,-0.00033132,0.00047132,0.00005458,0.00001272,-0.00014606,
 -0.00001950,-0.00000740,0.00001795,-0.00000676,-0.00001271,0.00001762,
 -0.00000415,0.00001498,0.00006553,0.00030275,0.00001680,0.00015543,-0.
 00001616,0.00001309,-0.00001134,-0.00001634,0.00000555,-0.00001318,0.0
 0537352,-0.01184519,-0.00989836,-0.00265861,-0.00137370,0.00165433,-0.
 00192963,0.00706611,0.00723447,0.01958262,0.03872128,-0.00017125,-0.00
 024240,-0.00002401,0.00016152,0.00010415,-0.00004148,-0.00012316,-0.00
 032149,-0.00001342,0.00221241,-0.00123413,0.00021197,0.00014880,0.0006
 4106,0.00011867,0.00043292,-0.00028889,-0.00014496,-0.00009272,0.00009
 244,0.00003703,-0.00012918,-0.00004236,0.00001435,-0.00010247,0.000171
 30,0.00003494,0.00006342,0.00013668,0.00001692,-0.00921674,-0.00339005
 ,-0.00199280,-0.00042758,-0.00028353,-0.00001459,0.00146234,0.00232799
 ,-0.00049867,-0.00005926,-0.00054022,-0.00012233,-0.00055872,0.0001392
 8,0.00014789,0.00000918,-0.00017036,-0.00004677,0.01961498,-0.00413755
 ,-0.01277484,0.00055611,0.00016190,-0.00008052,0.00034202,-0.00091477,
 0.00390044,0.00031081,0.00144671,-0.00141164,0.00024454,-0.00049592,0.
 00013769,-0.00233208,0.00001588,-0.00404462,0.00037389,0.00004584,0.00
 025772,0.00074039,-0.00039953,0.00043138,0.00074716,0.00049666,0.00098
 689,0.00019913,-0.00037962,-0.00145605,-0.00013344,0.00001021,0.000229
 11,0.00005457,-0.00006291,0.00023116,0.00006510,0.00020221,0.00024901,
 0.00017461,-0.00011049,0.00090801,-0.00009465,-0.00031687,-0.00015056,
 -0.00022279,0.00013916,0.00015652,0.00199629,-0.00655601,-0.00285367,-
 0.00116498,0.00081966,0.00054501,-0.00109282,0.00350049,-0.00015250,0.
 02980500,-0.06415154,0.24831636,-0.00000426,0.00001840,0.00000277,-0.0
 0002531,0.00001353,0.00001232,0.00000273,0.00000016,-0.00000726,-0.000
 25631,0.00004740,-0.00003740,-0.00001198,-0.00004900,-0.00000425,-0.00
 003325,0.00002156,0.00001480,0.00001188,-0.00001238,-0.00000553,0.0000
 1428,0.00000574,-0.00000282,0.00001672,-0.00002258,-0.00000966,-0.0000
 0788,-0.00001546,-0.00000458,0.00039992,0.00049489,0.00071030,0.000055
 44,0.00006779,-0.00000174,-0.00023915,-0.00005169,-0.00008509,0.000004
 78,-0.00006999,0.00010017,0.00007503,-0.00001980,-0.00002355,0.0000015
 7,0.00001660,-0.00000166,-0.00246400,0.00045935,0.00097341,-0.00005818
 ,-0.00002572,0.00002499,0.00001482,0.00028009,-0.00066906,-0.00027295,
 -0.00038859,0.00021688,-0.00002665,0.00007218,-0.00002873,0.00037781,0
 .00003070,0.00052887,-0.00005677,-0.00000909,-0.00001938,-0.00015835,0
 .00004763,-0.00007105,-0.00013576,-0.00007964,-0.00011844,-0.00001813,
 0.00004110,0.00019978,0.00001322,0.,-0.00003540,-0.00000536,0.00000911
 ,-0.00002787,-0.00001038,-0.00002475,-0.00003276,0.00022096,-0.0000143
 1,0.00003550,0.00000525,0.00004465,0.00000519,0.00002159,-0.00001106,-
 0.00003469,-0.00036156,0.00136453,0.00089928,0.00022293,-0.00003342,-0
 .00012302,-0.00004920,-0.00353573,-0.00181262,-0.12681833,0.00916199,-
 0.10505533,0.12734823,0.00001844,0.00001667,0.00000396,-0.00000195,-0.
 00001786,0.00000107,0.00000826,0.00004320,-0.00000278,-0.00013539,0.00
 009064,-0.00004592,-0.00001785,-0.00004131,0.00000121,-0.00002909,0.00
 001523,0.00000151,0.00000283,-0.00000278,-0.00000015,0.00000346,0.0000
 0165,-0.00000004,0.00001366,-0.00000849,0.00000496,-0.00000242,-0.0000
 0572,0.00000365,0.00068611,0.00030189,0.00012051,0.00000742,-0.0000137
 5,0.00000114,-0.00005540,-0.00018723,0.00014623,-0.00011433,-0.0001654
 0,0.00001630,0.00002192,-0.00000792,0.00000191,0.00000709,-0.00000238,
 -0.00000683,-0.00083752,-0.00036745,0.00076479,-0.00001713,0.00000947,
 0.00000331,-0.00006559,0.00002057,-0.00008602,0.00008485,0.00002269,0.
 00000190,-0.00002691,0.00000661,0.00000620,0.00003956,-0.00010918,0.00
 003170,-0.00000681,0.00003019,-0.00000871,-0.00001227,0.00004956,0.000
 03050,0.00000689,0.00004601,-0.00005258,-0.00001433,0.00000060,0.00004
 459,0.00000608,0.00000031,-0.00000590,0.00000115,0.00000812,-0.0000077
 9,0.00000413,-0.00000112,-0.00000730,-0.00010371,-0.00000904,-0.000077
 89,0.00000582,0.00000187,0.00000725,0.00000941,-0.00000279,-0.00000111
 ,0.00002634,-0.00013508,-0.00010696,0.00016163,-0.00018014,-0.00016895
 ,-0.00155480,0.00023447,-0.00097831,-0.00431472,-0.00762009,0.00821930
 ,-0.00463622,0.00947894,0.00007371,0.00008736,0.00000840,-0.00003274,-
 0.00005429,-0.00000076,0.00005437,0.00012120,0.00001366,-0.00059683,0.
 00048987,0.00004665,-0.00005248,-0.00020878,-0.00004018,-0.00015264,0.
 00009584,0.00004327,0.00002610,-0.00002557,-0.00000959,0.00003686,0.00
 001080,-0.00000355,0.00002445,-0.00004127,-0.00001134,-0.00001754,-0.0
 0003906,-0.00000319,0.00367127,0.00050101,-0.00061171,0.00012041,0.000
 03335,-0.00000704,-0.00047546,-0.00101761,0.00051613,0.00018850,0.0003
 7437,-0.00014445,0.00010850,-0.00004839,-0.00002419,-0.00000853,0.0000
 5139,0.00001159,-0.00238185,-0.00007697,0.00210201,-0.00016408,-0.0000
 4382,0.00002485,-0.00034330,-0.00004432,-0.00106069,0.00030340,-0.0000
 9928,0.00041164,-0.00008464,0.00012727,-0.00002698,0.00049179,-0.00003
 291,0.00050267,-0.00006778,-0.00001131,-0.00006332,-0.00021195,0.00008
 459,-0.00011353,-0.00020241,-0.00007905,-0.00022076,-0.00005597,0.0001
 3100,0.00037782,0.00003611,-0.00000665,-0.00005198,-0.00001443,0.00001
 955,-0.00005962,-0.00001463,-0.00004988,-0.00005445,-0.00045448,0.0000
 8325,-0.00053655,0.00003600,0.00008201,0.00007044,0.00007774,-0.000061
 50,-0.00000445,-0.00016570,0.00130691,0.00070765,0.00028273,-0.0003746
 5,-0.00033778,-0.00102166,-0.00344666,-0.00154252,-0.06443038,0.016933
 61,-0.09585285,0.09876693,-0.02237961,0.13745910,-0.00023603,-0.000253
 09,-0.00001972,0.00010289,0.00021115,-0.00001217,-0.00018720,-0.000506
 55,-0.00004462,0.00206312,-0.00149104,0.00020728,0.00012065,0.00067012
 ,0.00014764,0.00043082,-0.00028727,-0.00014344,-0.00006922,0.00006559,
 0.00002812,-0.00009881,-0.00003492,0.00001121,0.00000004,0.00011227,0.
 00000409,0.00004785,0.00010136,0.00000912,-0.01437783,-0.00244419,0.00
 060898,-0.00032759,0.00001641,0.00003428,0.00057789,0.00272662,-0.0013
 2896,-0.00037347,-0.00091973,0.00001001,-0.00017836,0.00003596,0.00006
 686,0.00001671,-0.00013674,-0.00004254,0.00600511,0.00247508,0.0005405
 4,0.00042974,0.00011729,-0.00004324,0.00234129,0.00078918,0.00197158,-
 0.00170145,-0.00041487,-0.00103260,0.00026096,-0.00020444,0.00007908,-
 0.00066396,-0.00023004,0.00054469,-0.00006747,0.00003228,0.00009047,-0
 .00037969,0.00020342,-0.00055857,-0.00003618,-0.00025689,-0.00044037,-
 0.00015017,-0.00031653,-0.00091555,-0.00008327,0.00003283,0.00018683,0
 .00004395,-0.00003902,0.00012589,0.00007459,0.00011563,0.00012282,0.00
 162836,-0.00029045,0.00157665,-0.00010369,-0.00017973,-0.00016639,-0.0
 0018874,0.00012972,-0.00000528,-0.00094694,0.00073602,0.00088316,0.000
 81430,0.00090228,-0.00034814,0.00089866,-0.00282789,-0.00098781,-0.045
 43891,-0.02838070,0.06125808,0.00220803,0.01083107,-0.03334802,0.04754
 472,0.00019709,0.00020099,0.00001655,-0.00001497,-0.00022555,-0.000015
 60,0.00005060,0.00045288,0.00005238,-0.00127672,0.00067138,-0.00017897
 ,-0.00002904,-0.00043485,-0.00007455,-0.00033019,0.00014275,0.00008454
 ,0.00002705,-0.00002834,-0.00001219,0.00003961,0.00001669,-0.00000508,
 0.00006157,-0.00006661,-0.00002203,-0.00002318,-0.00004802,-0.00000294
 ,0.00560625,0.00302119,0.00111715,0.00017152,-0.00020887,-0.00005961,-
 0.00002553,-0.00172140,0.00074990,-0.00052378,-0.00016320,-0.00009704,
 -0.00003683,-0.00003772,-0.00008015,0.00000744,0.00003585,0.00000747,0
 .00225414,-0.00856707,-0.00648343,-0.00014336,-0.00003419,0.00001942,-
 0.00030120,0.00050611,-0.00096667,0.00052542,0.00042279,-0.00035606,-0
 .00000904,-0.00024571,0.00025844,0.00035697,-0.00050485,0.00061119,-0.
 00009609,0.00000595,-0.00007609,-0.00012584,0.00031252,-0.00014255,-0.
 00050744,-0.00012638,-0.00070932,-0.00006743,0.00006515,0.00048755,0.0
 0004313,0.00000236,-0.00005136,-0.00001028,0.00002226,-0.00005593,-0.0
 0001089,-0.00005741,-0.00009006,-0.00093880,0.00002474,-0.00076074,0.0
 0004914,0.00002998,0.00008208,0.00008650,-0.00004771,0.00004520,-0.000
 42736,0.00169357,0.00043682,0.00086838,-0.00128651,-0.00076352,-0.0011
 3905,-0.00516136,0.00048031,-0.02002141,-0.02895773,0.06536451,-0.0031
 9457,-0.00150179,0.00760914,0.01890988,0.04179942,0.00012579,0.0002035
 1,0.00002275,-0.00024807,-0.00001400,0.00006659,0.00015341,0.00027379,
 -0.00000848,-0.00293952,0.00131483,-0.00015847,-0.00018336,-0.00070328
 ,-0.00015928,-0.00038631,0.00034424,0.00015900,0.00011535,-0.00011041,
 -0.00004462,0.00015731,0.00005462,-0.00001593,0.00001645,-0.00017976,0
 .00000433,-0.00007310,-0.00016003,-0.00001992,0.01353612,0.00434652,0.
 00189027,0.00048541,0.00054525,0.00008281,-0.00183703,-0.00208413,-0.0
 0020425,-0.00006354,0.00050275,0.00044997,0.00090786,-0.00019998,-0.00
 019221,-0.00000582,0.00020796,0.00005957,-0.01268406,-0.00109422,0.001
 88337,-0.00068190,-0.00020347,0.00008624,-0.00047821,0.00100597,-0.006
 23252,-0.00092248,-0.00237707,0.00204172,-0.00031875,0.00090377,-0.000
 50146,0.00218822,0.00039867,0.00211174,-0.00037792,-0.00004792,-0.0002
 4165,-0.00120585,0.00044900,-0.00040503,-0.00086162,-0.00107240,-0.000
 62905,-0.00017786,0.00052540,0.00172013,0.00015310,-0.00001589,-0.0002
 9378,-0.00007573,0.00007326,-0.00028031,-0.00010433,-0.00024071,-0.000
 25064,0.00061774,0.00010384,-0.00049081,0.00009398,0.00042546,0.000111
 74,0.00023756,-0.00013857,-0.00028278,0.00089066,-0.00029618,-0.001887
 39,-0.00056600,-0.00166525,0.00068443,-0.00020836,0.00398224,0.0032885
 1,0.02807080,0.04683920,-0.13525466,0.00572173,0.01452512,-0.04151333,
 -0.02906986,-0.06641933,0.17440330\\0.00000197,0.00000257,-0.00000431,
 0.00000156,0.00000357,-0.00000330,0.00000080,0.00000183,-0.00000224,-0
 .00000003,0.00000200,-0.00000169,0.00000156,0.00000011,-0.00000205,0.0
 0000280,0.00000136,-0.00000348,0.00000255,0.00000375,-0.00000537,0.000
 00060,0.00000410,-0.00000384,0.00000262,-0.00000074,-0.00000191,0.0000
 0316,0.00000160,-0.00000435,0.00000146,-0.00000086,0.00000059,-0.00000
 041,0.00000226,-0.00000093,-0.00000046,-0.00000202,0.00000191,-0.00000
 121,-0.00000056,0.00000202,-0.00000198,0.00000130,0.00000018,-0.000001
 90,0.00000094,0.00000091,-0.00000239,-0.00000142,0.00000131,-0.0000009
 0,0.00000362,-0.00000174,0.00000308,-0.00000239,-0.00000175,-0.0000018
 6,0.00000203,0.00000324,-0.00000254,-0.00000152,0.00000406,-0.00000640
 ,-0.00000303,0.00000476,-0.00000067,-0.00000331,0.00000311,-0.00000155
 ,-0.00000267,0.00000348,0.00000029,-0.00000154,0.00000108,0.00000007,0
 .00000082,0.00000090,-0.00000111,0.00000113,0.00000016,-0.00000174,0.0
 0000172,0.00000084,-0.00000085,0.00000048,-0.00000076,-0.00000326,0.00
 000134,0.00000088,-0.00000356,0.00000088,0.00000297,-0.00000192,0.0000
 0203,0.00000118,0.00000348,-0.00000328,0.00000080,0.00000250,-0.000000
 65,-0.00000308,0.00000312,-0.00000237,0.00000040,0.00000029,-0.0000030
 6,0.00000222,0.00000127,-0.00000473,0.00000145,0.00000158,-0.00000530,
 0.00000239\\\@


 REPARTEE - WHAT YOU THINK OF AFTER YOU BECOME A DEPARTEE.
 Job cpu time:       0 days  0 hours  1 minutes  2.8 seconds.
 File lengths (MBytes):  RWF=    222 Int=      0 D2E=      0 Chk=     11 Scr=      1
 Normal termination of Gaussian 09 at Fri Aug 21 00:49:50 2020.
