 Entering Gaussian System, Link 0=g09
 Input=sm_2H2O_claisen_PM6_toluene_water_1.com
 Output=sm_2H2O_claisen_PM6_toluene_water_1.log
 Initial command:
 /apps/applications/gaussian/G09.D01/2/default/g09/l1.exe "/local/707376.1.40core-192G.q/Gau-264504.inp" -scrdir="/local/707376.1.40core-192G.q/"
 Entering Link 1 = /apps/applications/gaussian/G09.D01/2/default/g09/l1.exe PID=    264505.
  
 Copyright (c) 1988,1990,1992,1993,1995,1998,2003,2009,2013,
            Gaussian, Inc.  All Rights Reserved.
  
 This is part of the Gaussian(R) 09 program.  It is based on
 the Gaussian(R) 03 system (copyright 2003, Gaussian, Inc.),
 the Gaussian(R) 98 system (copyright 1998, Gaussian, Inc.),
 the Gaussian(R) 94 system (copyright 1995, Gaussian, Inc.),
 the Gaussian 92(TM) system (copyright 1992, Gaussian, Inc.),
 the Gaussian 90(TM) system (copyright 1990, Gaussian, Inc.),
 the Gaussian 88(TM) system (copyright 1988, Gaussian, Inc.),
 the Gaussian 86(TM) system (copyright 1986, Carnegie Mellon
 University), and the Gaussian 82(TM) system (copyright 1983,
 Carnegie Mellon University). Gaussian is a federally registered
 trademark of Gaussian, Inc.
  
 This software contains proprietary and confidential information,
 including trade secrets, belonging to Gaussian, Inc.
  
 This software is provided under written license and may be
 used, copied, transmitted, or stored only in accord with that
 written license.
  
 The following legend is applicable only to US Government
 contracts under FAR:
  
                    RESTRICTED RIGHTS LEGEND
  
 Use, reproduction and disclosure by the US Government is
 subject to restrictions as set forth in subparagraphs (a)
 and (c) of the Commercial Computer Software - Restricted
 Rights clause in FAR 52.227-19.
  
 Gaussian, Inc.
 340 Quinnipiac St., Bldg. 40, Wallingford CT 06492
  
  
 ---------------------------------------------------------------
 Warning -- This program may not be used in any manner that
 competes with the business of Gaussian, Inc. or will provide
 assistance to any competitor of Gaussian, Inc.  The licensee
 of this program is prohibited from giving any competitor of
 Gaussian, Inc. access to this program.  By using this program,
 the user acknowledges that Gaussian, Inc. is engaged in the
 business of creating and licensing software in the field of
 computational chemistry and represents and warrants to the
 licensee that it is not a competitor of Gaussian, Inc. and that
 it will not use this program in any manner prohibited above.
 ---------------------------------------------------------------
  

 Cite this work as:
 Gaussian 09, Revision D.01,
 M. J. Frisch, G. W. Trucks, H. B. Schlegel, G. E. Scuseria, 
 M. A. Robb, J. R. Cheeseman, G. Scalmani, V. Barone, B. Mennucci, 
 G. A. Petersson, H. Nakatsuji, M. Caricato, X. Li, H. P. Hratchian, 
 A. F. Izmaylov, J. Bloino, G. Zheng, J. L. Sonnenberg, M. Hada, 
 M. Ehara, K. Toyota, R. Fukuda, J. Hasegawa, M. Ishida, T. Nakajima, 
 Y. Honda, O. Kitao, H. Nakai, T. Vreven, J. A. Montgomery, Jr., 
 J. E. Peralta, F. Ogliaro, M. Bearpark, J. J. Heyd, E. Brothers, 
 K. N. Kudin, V. N. Staroverov, T. Keith, R. Kobayashi, J. Normand, 
 K. Raghavachari, A. Rendell, J. C. Burant, S. S. Iyengar, J. Tomasi, 
 M. Cossi, N. Rega, J. M. Millam, M. Klene, J. E. Knox, J. B. Cross, 
 V. Bakken, C. Adamo, J. Jaramillo, R. Gomperts, R. E. Stratmann, 
 O. Yazyev, A. J. Austin, R. Cammi, C. Pomelli, J. W. Ochterski, 
 R. L. Martin, K. Morokuma, V. G. Zakrzewski, G. A. Voth, 
 P. Salvador, J. J. Dannenberg, S. Dapprich, A. D. Daniels, 
 O. Farkas, J. B. Foresman, J. V. Ortiz, J. Cioslowski, 
 and D. J. Fox, Gaussian, Inc., Wallingford CT, 2013.
 
 ******************************************
 Gaussian 09:  ES64L-G09RevD.01 24-Apr-2013
                21-Aug-2020 
 ******************************************
 %nprocshared=4
 Will use up to    4 processors via shared memory.
 %chk=sm_2H2O_claisen_PM6_toluene_water_1.chk
 ----------------------------------------------------------------------
 # opt freq pm6 scrf=(cpcm,solvent=water) geom=connectivity empiricaldi
 spersion=gd3
 ----------------------------------------------------------------------
 1/14=-1,18=20,19=15,26=1,38=1,57=2/1,3;
 2/9=110,12=2,17=6,18=5,40=1/2;
 3/5=2,16=1,25=1,41=3900000,70=2101,71=1,72=1,124=31/1,2,3;
 4/35=1/1;
 5/5=2,35=1,38=5,53=1/2;
 6/7=2,8=2,9=2,10=2,28=1/1;
 7//1,2,3,16;
 1/14=-1,18=20,19=15,26=1/3(2);
 2/9=110/2;
 99//99;
 2/9=110/2;
 3/5=2,16=1,25=1,41=3900000,70=2105,71=1,72=1,124=31,135=20/1,2,3;
 4/5=5,16=3,35=1/1;
 5/5=2,35=1,38=5,53=1/2;
 7//1,2,3,16;
 1/14=-1,18=20,19=15,26=1/3(-5);
 2/9=110/2;
 6/7=2,8=2,9=2,10=2,19=2,28=1/1;
 99/9=1/99;
 -------------------
 Title Card Required
 -------------------
 Symbolic Z-matrix:
 Charge =  0 Multiplicity = 1
 C                    -2.74863   2.44656   0.37686 
 C                    -3.00819   1.13695   0.04867 
 C                    -1.93593   0.21917  -0.16811 
 C                    -0.60169   0.68802  -0.04469 
 C                    -0.36006   2.05103   0.30057 
 C                    -1.41006   2.91148   0.50702 
 H                    -3.56731   3.1499    0.54467 
 H                    -4.03924   0.79293  -0.04543 
 H                     0.67631   2.38443   0.40225 
 H                    -1.2367    3.95512   0.77296 
 C                     0.48291  -0.2462   -0.25783 
 C                    -2.13258  -1.16225  -0.48978 
 C                     0.24902  -1.57189  -0.55583 
 H                     1.06632  -2.27841  -0.70655 
 C                    -1.08548  -2.03249  -0.67438 
 H                    -1.25759  -3.08517  -0.91427 
 O                     1.70222   0.35306  -0.12841 
 Cl                   -3.74365  -1.76011  -0.65147 
 C                     2.98757  -0.4138   -0.12226 
 C                     2.98976  -1.45138   0.97283 
 H                     3.66667  -2.28903   0.7823 
 C                     3.19946  -1.00531  -1.50687 
 H                     4.25186  -1.27755  -1.6699 
 H                     2.60733  -1.91662  -1.67473 
 H                     2.92725  -0.29837  -2.30163 
 C                     3.94672   0.73137   0.1935 
 H                     3.57402   1.34447   1.02697 
 H                     4.93433   0.35102   0.48741 
 H                     4.09757   1.40251  -0.66079 
 C                     2.27894  -1.36977   2.09347 
 H                     2.31611  -2.12075   2.87206 
 H                     1.59456  -0.55622   2.32002 
 O                    -0.40612  -1.09904   2.42723 
 H                    -0.49512  -1.52067   1.56958 
 H                    -0.60455  -0.17029   2.28691 
 O                     1.77133   2.23612  -2.2856 
 H                     1.01263   1.79288  -2.66516 
 H                     1.96182   1.76695  -1.45564 
 
 Add virtual bond connecting atoms H38        and O17        Dist= 3.70D+00.
 Add virtual bond connecting atoms O33        and H32        Dist= 3.92D+00.
 Add virtual bond connecting atoms H35        and H32        Dist= 4.22D+00.

 GradGradGradGradGradGradGradGradGradGradGradGradGradGradGradGradGradGrad
 Berny optimization.
 Initialization pass.
                           ----------------------------
                           !    Initial Parameters    !
                           ! (Angstroms and Degrees)  !
 --------------------------                            --------------------------
 ! Name  Definition              Value          Derivative Info.                !
 --------------------------------------------------------------------------------
 ! R1    R(1,2)                  1.3748         estimate D2E/DX2                !
 ! R2    R(1,6)                  1.423          estimate D2E/DX2                !
 ! R3    R(1,7)                  1.0923         estimate D2E/DX2                !
 ! R4    R(2,3)                  1.428          estimate D2E/DX2                !
 ! R5    R(2,8)                  1.091          estimate D2E/DX2                !
 ! R6    R(3,4)                  1.4196         estimate D2E/DX2                !
 ! R7    R(3,12)                 1.4319         estimate D2E/DX2                !
 ! R8    R(4,5)                  1.4267         estimate D2E/DX2                !
 ! R9    R(4,11)                 1.4473         estimate D2E/DX2                !
 ! R10   R(5,6)                  1.3731         estimate D2E/DX2                !
 ! R11   R(5,9)                  1.0934         estimate D2E/DX2                !
 ! R12   R(6,10)                 1.0908         estimate D2E/DX2                !
 ! R13   R(11,13)                1.3788         estimate D2E/DX2                !
 ! R14   R(11,17)                1.3648         estimate D2E/DX2                !
 ! R15   R(12,15)                1.374          estimate D2E/DX2                !
 ! R16   R(12,18)                1.726          estimate D2E/DX2                !
 ! R17   R(13,14)                1.0908         estimate D2E/DX2                !
 ! R18   R(13,15)                1.4167         estimate D2E/DX2                !
 ! R19   R(15,16)                1.0933         estimate D2E/DX2                !
 ! R20   R(17,19)                1.4967         estimate D2E/DX2                !
 ! R21   R(17,38)                1.9565         estimate D2E/DX2                !
 ! R22   R(19,20)                1.5086         estimate D2E/DX2                !
 ! R23   R(19,22)                1.5205         estimate D2E/DX2                !
 ! R24   R(19,26)                1.5268         estimate D2E/DX2                !
 ! R25   R(20,21)                1.0937         estimate D2E/DX2                !
 ! R26   R(20,30)                1.3296         estimate D2E/DX2                !
 ! R27   R(22,23)                1.0992         estimate D2E/DX2                !
 ! R28   R(22,24)                1.0997         estimate D2E/DX2                !
 ! R29   R(22,25)                1.0979         estimate D2E/DX2                !
 ! R30   R(26,27)                1.0998         estimate D2E/DX2                !
 ! R31   R(26,28)                1.0984         estimate D2E/DX2                !
 ! R32   R(26,29)                1.0968         estimate D2E/DX2                !
 ! R33   R(30,31)                1.0824         estimate D2E/DX2                !
 ! R34   R(30,32)                1.087          estimate D2E/DX2                !
 ! R35   R(32,33)                2.0758         estimate D2E/DX2                !
 ! R36   R(32,35)                2.233          estimate D2E/DX2                !
 ! R37   R(33,34)                0.9598         estimate D2E/DX2                !
 ! R38   R(33,35)                0.96           estimate D2E/DX2                !
 ! R39   R(36,37)                0.9572         estimate D2E/DX2                !
 ! R40   R(36,38)                0.9722         estimate D2E/DX2                !
 ! A1    A(2,1,6)              120.7075         estimate D2E/DX2                !
 ! A2    A(2,1,7)              120.5665         estimate D2E/DX2                !
 ! A3    A(6,1,7)              118.7259         estimate D2E/DX2                !
 ! A4    A(1,2,3)              120.4446         estimate D2E/DX2                !
 ! A5    A(1,2,8)              119.9587         estimate D2E/DX2                !
 ! A6    A(3,2,8)              119.5965         estimate D2E/DX2                !
 ! A7    A(2,3,4)              118.7041         estimate D2E/DX2                !
 ! A8    A(2,3,12)             123.4373         estimate D2E/DX2                !
 ! A9    A(4,3,12)             117.8541         estimate D2E/DX2                !
 ! A10   A(3,4,5)              119.7196         estimate D2E/DX2                !
 ! A11   A(3,4,11)             118.5785         estimate D2E/DX2                !
 ! A12   A(5,4,11)             121.6966         estimate D2E/DX2                !
 ! A13   A(4,5,6)              120.3679         estimate D2E/DX2                !
 ! A14   A(4,5,9)              118.3165         estimate D2E/DX2                !
 ! A15   A(6,5,9)              121.3141         estimate D2E/DX2                !
 ! A16   A(1,6,5)              120.0546         estimate D2E/DX2                !
 ! A17   A(1,6,10)             118.9717         estimate D2E/DX2                !
 ! A18   A(5,6,10)             120.9736         estimate D2E/DX2                !
 ! A19   A(4,11,13)            121.693          estimate D2E/DX2                !
 ! A20   A(4,11,17)            111.8477         estimate D2E/DX2                !
 ! A21   A(13,11,17)           126.4591         estimate D2E/DX2                !
 ! A22   A(3,12,15)            122.4487         estimate D2E/DX2                !
 ! A23   A(3,12,18)            118.9068         estimate D2E/DX2                !
 ! A24   A(15,12,18)           118.6445         estimate D2E/DX2                !
 ! A25   A(11,13,14)           121.7041         estimate D2E/DX2                !
 ! A26   A(11,13,15)           119.3724         estimate D2E/DX2                !
 ! A27   A(14,13,15)           118.9232         estimate D2E/DX2                !
 ! A28   A(12,15,13)           120.0466         estimate D2E/DX2                !
 ! A29   A(12,15,16)           121.2886         estimate D2E/DX2                !
 ! A30   A(13,15,16)           118.6649         estimate D2E/DX2                !
 ! A31   A(11,17,19)           122.8649         estimate D2E/DX2                !
 ! A32   A(11,17,38)           111.81           estimate D2E/DX2                !
 ! A33   A(19,17,38)           105.0161         estimate D2E/DX2                !
 ! A34   A(17,19,20)           110.8926         estimate D2E/DX2                !
 ! A35   A(17,19,22)           108.3757         estimate D2E/DX2                !
 ! A36   A(17,19,26)            98.9778         estimate D2E/DX2                !
 ! A37   A(20,19,22)           113.1581         estimate D2E/DX2                !
 ! A38   A(20,19,26)           111.3974         estimate D2E/DX2                !
 ! A39   A(22,19,26)           113.1144         estimate D2E/DX2                !
 ! A40   A(19,20,21)           113.6535         estimate D2E/DX2                !
 ! A41   A(19,20,30)           124.6699         estimate D2E/DX2                !
 ! A42   A(21,20,30)           121.6505         estimate D2E/DX2                !
 ! A43   A(19,22,23)           111.3972         estimate D2E/DX2                !
 ! A44   A(19,22,24)           112.7275         estimate D2E/DX2                !
 ! A45   A(19,22,25)           111.9711         estimate D2E/DX2                !
 ! A46   A(23,22,24)           106.717          estimate D2E/DX2                !
 ! A47   A(23,22,25)           106.8264         estimate D2E/DX2                !
 ! A48   A(24,22,25)           106.8337         estimate D2E/DX2                !
 ! A49   A(19,26,27)           111.2218         estimate D2E/DX2                !
 ! A50   A(19,26,28)           111.1293         estimate D2E/DX2                !
 ! A51   A(19,26,29)           112.5987         estimate D2E/DX2                !
 ! A52   A(27,26,28)           107.156          estimate D2E/DX2                !
 ! A53   A(27,26,29)           107.2039         estimate D2E/DX2                !
 ! A54   A(28,26,29)           107.2564         estimate D2E/DX2                !
 ! A55   A(20,30,31)           123.0482         estimate D2E/DX2                !
 ! A56   A(20,30,32)           123.9323         estimate D2E/DX2                !
 ! A57   A(31,30,32)           113.0153         estimate D2E/DX2                !
 ! A58   A(30,32,33)           114.9532         estimate D2E/DX2                !
 ! A59   A(30,32,35)           138.2732         estimate D2E/DX2                !
 ! A60   A(32,33,34)            99.0962         estimate D2E/DX2                !
 ! A61   A(34,33,35)           105.9738         estimate D2E/DX2                !
 ! A62   A(37,36,38)           105.6852         estimate D2E/DX2                !
 ! A63   A(17,38,36)           154.3983         estimate D2E/DX2                !
 ! D1    D(6,1,2,3)             -0.0231         estimate D2E/DX2                !
 ! D2    D(6,1,2,8)            179.844          estimate D2E/DX2                !
 ! D3    D(7,1,2,3)           -179.9026         estimate D2E/DX2                !
 ! D4    D(7,1,2,8)             -0.0356         estimate D2E/DX2                !
 ! D5    D(2,1,6,5)              0.1956         estimate D2E/DX2                !
 ! D6    D(2,1,6,10)          -179.7224         estimate D2E/DX2                !
 ! D7    D(7,1,6,5)           -179.9226         estimate D2E/DX2                !
 ! D8    D(7,1,6,10)             0.1594         estimate D2E/DX2                !
 ! D9    D(1,2,3,4)             -0.3196         estimate D2E/DX2                !
 ! D10   D(1,2,3,12)           178.897          estimate D2E/DX2                !
 ! D11   D(8,2,3,4)            179.8129         estimate D2E/DX2                !
 ! D12   D(8,2,3,12)            -0.9706         estimate D2E/DX2                !
 ! D13   D(2,3,4,5)              0.4921         estimate D2E/DX2                !
 ! D14   D(2,3,4,11)           179.6683         estimate D2E/DX2                !
 ! D15   D(12,3,4,5)          -178.7685         estimate D2E/DX2                !
 ! D16   D(12,3,4,11)            0.4078         estimate D2E/DX2                !
 ! D17   D(2,3,12,15)         -178.9878         estimate D2E/DX2                !
 ! D18   D(2,3,12,18)            0.9738         estimate D2E/DX2                !
 ! D19   D(4,3,12,15)            0.235          estimate D2E/DX2                !
 ! D20   D(4,3,12,18)         -179.8034         estimate D2E/DX2                !
 ! D21   D(3,4,5,6)             -0.3292         estimate D2E/DX2                !
 ! D22   D(3,4,5,9)            179.2155         estimate D2E/DX2                !
 ! D23   D(11,4,5,6)          -179.4791         estimate D2E/DX2                !
 ! D24   D(11,4,5,9)             0.0657         estimate D2E/DX2                !
 ! D25   D(3,4,11,13)           -0.9489         estimate D2E/DX2                !
 ! D26   D(3,4,11,17)          178.9407         estimate D2E/DX2                !
 ! D27   D(5,4,11,13)          178.2103         estimate D2E/DX2                !
 ! D28   D(5,4,11,17)           -1.9001         estimate D2E/DX2                !
 ! D29   D(4,5,6,1)             -0.0169         estimate D2E/DX2                !
 ! D30   D(4,5,6,10)           179.8994         estimate D2E/DX2                !
 ! D31   D(9,5,6,1)           -179.5478         estimate D2E/DX2                !
 ! D32   D(9,5,6,10)             0.3685         estimate D2E/DX2                !
 ! D33   D(4,11,13,14)        -179.3695         estimate D2E/DX2                !
 ! D34   D(4,11,13,15)           0.8215         estimate D2E/DX2                !
 ! D35   D(17,11,13,14)          0.7579         estimate D2E/DX2                !
 ! D36   D(17,11,13,15)       -179.0511         estimate D2E/DX2                !
 ! D37   D(4,11,17,19)         171.851          estimate D2E/DX2                !
 ! D38   D(4,11,17,38)         -61.9368         estimate D2E/DX2                !
 ! D39   D(13,11,17,19)         -8.2658         estimate D2E/DX2                !
 ! D40   D(13,11,17,38)        117.9463         estimate D2E/DX2                !
 ! D41   D(3,12,15,13)          -0.3761         estimate D2E/DX2                !
 ! D42   D(3,12,15,16)         179.667          estimate D2E/DX2                !
 ! D43   D(18,12,15,13)        179.6622         estimate D2E/DX2                !
 ! D44   D(18,12,15,16)         -0.2948         estimate D2E/DX2                !
 ! D45   D(11,13,15,12)         -0.1573         estimate D2E/DX2                !
 ! D46   D(11,13,15,16)        179.8008         estimate D2E/DX2                !
 ! D47   D(14,13,15,12)       -179.9717         estimate D2E/DX2                !
 ! D48   D(14,13,15,16)         -0.0136         estimate D2E/DX2                !
 ! D49   D(11,17,19,20)        -57.174          estimate D2E/DX2                !
 ! D50   D(11,17,19,22)         67.6017         estimate D2E/DX2                !
 ! D51   D(11,17,19,26)       -174.2814         estimate D2E/DX2                !
 ! D52   D(38,17,19,20)        173.6824         estimate D2E/DX2                !
 ! D53   D(38,17,19,22)        -61.542          estimate D2E/DX2                !
 ! D54   D(38,17,19,26)         56.575          estimate D2E/DX2                !
 ! D55   D(11,17,38,36)        -19.0723         estimate D2E/DX2                !
 ! D56   D(19,17,38,36)        116.3671         estimate D2E/DX2                !
 ! D57   D(17,19,20,21)        155.7285         estimate D2E/DX2                !
 ! D58   D(17,19,20,30)        -26.1089         estimate D2E/DX2                !
 ! D59   D(22,19,20,21)         33.7043         estimate D2E/DX2                !
 ! D60   D(22,19,20,30)       -148.1331         estimate D2E/DX2                !
 ! D61   D(26,19,20,21)        -95.0652         estimate D2E/DX2                !
 ! D62   D(26,19,20,30)         83.0975         estimate D2E/DX2                !
 ! D63   D(17,19,22,23)        160.6093         estimate D2E/DX2                !
 ! D64   D(17,19,22,24)        -79.4517         estimate D2E/DX2                !
 ! D65   D(17,19,22,25)         41.0493         estimate D2E/DX2                !
 ! D66   D(20,19,22,23)        -75.969          estimate D2E/DX2                !
 ! D67   D(20,19,22,24)         43.97           estimate D2E/DX2                !
 ! D68   D(20,19,22,25)        164.471          estimate D2E/DX2                !
 ! D69   D(26,19,22,23)         51.9115         estimate D2E/DX2                !
 ! D70   D(26,19,22,24)        171.8505         estimate D2E/DX2                !
 ! D71   D(26,19,22,25)        -67.6485         estimate D2E/DX2                !
 ! D72   D(17,19,26,27)         46.8234         estimate D2E/DX2                !
 ! D73   D(17,19,26,28)        166.1183         estimate D2E/DX2                !
 ! D74   D(17,19,26,29)        -73.5282         estimate D2E/DX2                !
 ! D75   D(20,19,26,27)        -69.8994         estimate D2E/DX2                !
 ! D76   D(20,19,26,28)         49.3955         estimate D2E/DX2                !
 ! D77   D(20,19,26,29)        169.749          estimate D2E/DX2                !
 ! D78   D(22,19,26,27)        161.3079         estimate D2E/DX2                !
 ! D79   D(22,19,26,28)        -79.3972         estimate D2E/DX2                !
 ! D80   D(22,19,26,29)         40.9563         estimate D2E/DX2                !
 ! D81   D(19,20,30,31)       -178.6899         estimate D2E/DX2                !
 ! D82   D(19,20,30,32)          2.1034         estimate D2E/DX2                !
 ! D83   D(21,20,30,31)         -0.667          estimate D2E/DX2                !
 ! D84   D(21,20,30,32)       -179.8737         estimate D2E/DX2                !
 ! D85   D(20,30,32,33)        114.1083         estimate D2E/DX2                !
 ! D86   D(20,30,32,35)        101.28           estimate D2E/DX2                !
 ! D87   D(31,30,32,33)        -65.1692         estimate D2E/DX2                !
 ! D88   D(31,30,32,35)        -77.9976         estimate D2E/DX2                !
 ! D89   D(30,32,33,34)        -54.2283         estimate D2E/DX2                !
 ! D90   D(32,33,34,35)        -88.9248         estimate D2E/DX2                !
 ! D91   D(37,36,38,17)          4.6841         estimate D2E/DX2                !
 --------------------------------------------------------------------------------
 Trust Radius=3.00D-01 FncErr=1.00D-07 GrdErr=1.00D-07
 Number of steps in this run=    204 maximum allowed number of steps=    228.
 GradGradGradGradGradGradGradGradGradGradGradGradGradGradGradGradGradGrad

                          Input orientation:                          
 ---------------------------------------------------------------------
 Center     Atomic      Atomic             Coordinates (Angstroms)
 Number     Number       Type             X           Y           Z
 ---------------------------------------------------------------------
      1          6           0       -2.748629    2.446562    0.376864
      2          6           0       -3.008191    1.136949    0.048671
      3          6           0       -1.935928    0.219167   -0.168110
      4          6           0       -0.601689    0.688015   -0.044689
      5          6           0       -0.360059    2.051031    0.300566
      6          6           0       -1.410056    2.911484    0.507019
      7          1           0       -3.567314    3.149904    0.544673
      8          1           0       -4.039239    0.792934   -0.045428
      9          1           0        0.676311    2.384425    0.402249
     10          1           0       -1.236695    3.955117    0.772955
     11          6           0        0.482906   -0.246201   -0.257825
     12          6           0       -2.132581   -1.162252   -0.489781
     13          6           0        0.249017   -1.571889   -0.555832
     14          1           0        1.066316   -2.278405   -0.706545
     15          6           0       -1.085479   -2.032490   -0.674377
     16          1           0       -1.257589   -3.085173   -0.914269
     17          8           0        1.702217    0.353059   -0.128407
     18         17           0       -3.743654   -1.760105   -0.651469
     19          6           0        2.987569   -0.413800   -0.122257
     20          6           0        2.989757   -1.451375    0.972832
     21          1           0        3.666670   -2.289032    0.782296
     22          6           0        3.199458   -1.005307   -1.506871
     23          1           0        4.251859   -1.277548   -1.669900
     24          1           0        2.607333   -1.916615   -1.674726
     25          1           0        2.927254   -0.298374   -2.301629
     26          6           0        3.946721    0.731366    0.193502
     27          1           0        3.574018    1.344467    1.026971
     28          1           0        4.934325    0.351017    0.487412
     29          1           0        4.097571    1.402507   -0.660789
     30          6           0        2.278939   -1.369765    2.093467
     31          1           0        2.316108   -2.120749    2.872058
     32          1           0        1.594561   -0.556221    2.320021
     33          8           0       -0.406124   -1.099036    2.427231
     34          1           0       -0.495125   -1.520671    1.569575
     35          1           0       -0.604549   -0.170285    2.286905
     36          8           0        1.771332    2.236118   -2.285604
     37          1           0        1.012632    1.792879   -2.665156
     38          1           0        1.961824    1.766945   -1.455636
 ---------------------------------------------------------------------
                    Distance matrix (angstroms):
                    1          2          3          4          5
     1  C    0.000000
     2  C    1.374834   0.000000
     3  C    2.432852   1.427959   0.000000
     4  C    2.807053   2.449798   1.419593   0.000000
     5  C    2.422299   2.812757   2.461452   1.426674   0.000000
     6  C    1.422979   2.431685   2.825051   2.429332   1.373134
     7  H    1.092289   2.147236   3.429096   3.899125   3.399058
     8  H    2.139741   1.090991   2.183615   3.439151   3.903701
     9  H    3.425598   3.905991   3.440559   2.170448   1.093414
    10  H    2.172227   3.406590   3.915591   3.427204   2.148764
    11  C    4.254012   3.767599   2.464827   1.447250   2.509913
    12  C    3.762197   2.518521   1.431944   2.442381   3.753887
    13  C    5.099387   4.279326   2.851700   2.468225   3.772259
    14  H    6.168703   5.369972   3.942239   3.466979   4.668280
    15  C    4.892145   3.776899   2.459579   2.834027   4.260504
    16  H    5.872846   4.670993   3.454788   3.927254   5.353688
    17  O    4.944500   4.778471   3.640824   2.329632   2.705570
    18  Cl   4.443376   3.069857   2.723789   4.029072   5.184577
    19  C    6.429211   6.195416   4.964229   3.755368   4.178610
    20  C    6.962626   6.597642   5.324926   4.302421   4.892858
    21  H    7.984127   7.538522   6.211557   5.269308   5.939929
    22  C    7.130470   6.748620   5.446449   4.410673   5.027742
    23  H    8.189327   7.841659   6.540966   5.482853   6.019299
    24  H    7.206432   6.620307   5.241438   4.442853   5.333799
    25  H    6.850157   6.543208   5.335756   4.303508   4.805991
    26  C    6.913988   6.968233   5.915967   4.554849   4.505700
    27  H    6.450823   6.657748   5.749263   4.360724   4.062494
    28  H    7.964378   7.993356   6.902715   5.571728   5.563763
    29  H    7.002659   7.146027   6.168155   4.793029   4.606002
    30  C    6.541217   6.198270   5.040292   4.135721   4.677676
    31  H    7.262085   6.850713   5.726922   4.991003   5.583743
    32  H    5.626354   5.404737   4.388209   3.458828   3.833602
    33  O    4.718326   4.174677   3.288427   3.056499   3.801019
    34  H    4.715907   3.961262   2.850000   2.737791   3.792846
    35  H    3.885000   3.534975   2.819812   2.484556   2.989910
    36  O    5.250054   5.431469   4.721827   3.612416   3.356391
    37  H    4.881421   4.895112   4.172028   3.270108   3.278175
    38  H    5.099834   5.230763   4.387005   3.118727   2.925080
                    6          7          8          9         10
     6  C    0.000000
     7  H    2.170720   0.000000
     8  H    3.421411   2.475124   0.000000
     9  H    2.154459   4.314464   4.996966   0.000000
    10  H    1.090846   2.476341   4.303883   2.502816   0.000000
    11  C    3.760222   5.346196   4.644858   2.719062   4.655170
    12  C    4.255699   4.660820   2.766866   4.611346   5.346455
    13  C    4.897225   6.170156   4.923621   4.093033   5.875441
    14  H    5.877083   7.245869   5.994739   4.808691   6.808052
    15  C    5.093518   5.873908   4.135613   4.875671   6.161905
    16  H    6.164674   6.807314   4.850997   5.948924   7.239672
    17  O    4.078670   6.003610   5.758879   2.336777   4.735449
    18  Cl   5.348974   5.056683   2.640580   6.150085   6.401374
    19  C    5.549109   7.490746   7.130087   3.667026   6.142739
    20  C    6.213684   8.021862   7.448527   4.515635   6.865348
    21  H    7.272846   9.053674   8.340544   5.561284   7.939299
    22  C    6.375314   8.201452   7.600541   4.636949   7.034406
    23  H    7.371855   9.254520   8.698742   5.521629   7.966966
    24  H    6.649057   8.289850   7.360244   5.151856   7.432693
    25  H    6.083087   7.884889   7.403609   4.424377   6.699532
    26  C    5.791914   7.901479   7.989771   3.670390   6.131569
    27  H    5.250418   7.381791   7.708172   3.141416   5.479323
    28  H    6.841604   8.950693   9.000226   4.719394   7.152102
    29  H    5.828786   7.953427   8.182782   3.714732   6.084886
    30  C    5.869804   7.550155   7.012240   4.418436   6.515965
    31  H    6.693361   8.234753   7.575732   5.393096   7.344712
    32  H    4.933526   6.597892   6.257417   3.628833   5.546314
    33  O    4.558438   5.620555   4.784675   4.172136   5.382466
    34  H    4.648669   5.683577   4.530094   4.240836   5.582901
    35  H    3.648854   4.778808   4.262002   3.423314   4.439662
    36  O    4.286734   6.111188   6.392488   2.906135   4.621468
    37  H    4.145285   5.755035   5.777912   3.141976   4.642774
    38  H    4.065902   6.040296   6.241005   2.342128   4.470485
                   11         12         13         14         15
    11  C    0.000000
    12  C    2.780958   0.000000
    13  C    1.378753   2.417473   0.000000
    14  H    2.161381   3.394956   1.090806   0.000000
    15  C    2.413333   1.373977   1.416717   2.166040   0.000000
    16  H    3.394113   2.154861   2.165264   2.468716   1.093303
    17  O    1.364764   4.139134   2.449471   2.768252   3.709471
    18  Cl   4.506736   1.726015   3.998249   4.838128   2.672192
    19  C    2.513922   5.187600   3.004800   2.740321   4.417546
    20  C    3.041589   5.334902   3.140540   2.684010   4.433795
    21  H    3.923183   6.043106   3.739683   2.996431   4.977010
    22  C    3.084803   5.430446   3.151284   2.609903   4.484288
    23  H    4.154833   6.493616   4.165397   3.475263   5.481622
    24  H    3.051406   4.943677   2.632948   1.855532   3.827661
    25  H    3.186643   5.443437   3.441308   3.150858   4.664454
    26  C    3.627306   6.403950   4.420351   4.262105   5.806475
    27  H    3.706197   6.414784   4.697449   4.734855   6.000778
    28  H    4.552711   7.292877   5.170884   4.827099   6.577910
    29  H    3.993297   6.739587   4.865122   4.768618   6.217990
    30  C    3.164918   5.116419   3.343684   3.183732   4.406753
    31  H    4.082980   5.657872   4.040364   3.793842   4.914854
    32  H    2.824390   4.706787   3.333557   3.522082   4.281169
    33  O    2.954188   3.390223   3.090545   3.657806   3.309507
    34  H    2.433148   2.655311   2.252493   2.862338   2.376089
    35  H    2.768388   3.320974   3.282411   4.024513   3.531047
    36  O    3.454539   5.478543   4.450896   4.834397   5.383162
    37  H    3.199015   4.832952   4.044010   4.518229   4.795698
    38  H    2.770326   5.126131   3.858908   4.210455   4.932761
                   16         17         18         19         20
    16  H    0.000000
    17  O    4.604288   0.000000
    18  Cl   2.829379   5.864859   0.000000
    19  C    5.077882   1.496743   6.884909   0.000000
    20  C    4.926499   2.475170   6.933433   1.508571   0.000000
    21  H    5.268823   3.416006   7.566264   2.189952   1.093702
    22  C    4.954017   2.446845   7.036209   1.520504   2.528216
    23  H    5.847436   3.396433   8.074546   2.177083   2.933794
    24  H    4.108704   2.891670   6.434795   2.193899   2.715191
    25  H    5.215738   2.578367   7.025717   2.183260   3.472091
    26  C    6.548127   2.298813   8.127932   1.526788   2.507488
    27  H    6.836267   2.412763   8.124275   2.180860   2.856751
    28  H    7.218858   3.290252   9.003400   2.178646   2.695477
    29  H    6.991514   2.668800   8.454999   2.195699   3.469958
    30  C    4.949357   2.870097   6.630133   2.515046   1.329566
    31  H    5.295063   3.936925   7.018976   3.511475   2.123423
    32  H    4.999099   2.614035   6.227008   2.815222   2.136069
    33  O    3.979366   3.617315   4.588520   4.299604   3.710988
    34  H    3.032903   3.349973   3.942500   4.026986   3.536284
    35  H    4.378419   3.380650   4.584272   4.332052   4.035718
    36  O    6.274636   2.864295   7.003946   3.630615   5.069474
    37  H    5.658171   2.997283   6.269042   3.903350   5.260149
    38  H    5.848141   1.956529   6.755682   2.754215   4.160732
                   21         22         23         24         25
    21  H    0.000000
    22  C    2.665806   0.000000
    23  H    2.716397   1.099200   0.000000
    24  H    2.701453   1.099668   1.764340   0.000000
    25  H    3.744336   1.097948   1.764211   1.764670   0.000000
    26  C    3.089969   2.542775   2.757011   3.506571   2.885369
    27  H    3.642906   3.475930   3.821982   4.343766   3.767865
    28  H    2.943427   2.970950   2.787827   3.902805   3.496969
    29  H    3.986932   2.705555   2.867892   3.776963   2.637232
    30  C    2.118966   3.733982   4.250159   3.821801   4.570017
    31  H    2.493881   4.604296   5.008743   4.560672   5.519202
    32  H    3.108194   4.174024   4.847785   4.339860   4.816867
    33  O    4.550775   5.337243   6.206058   5.155135   5.840769
    34  H    4.304733   4.835293   5.752144   4.506385   5.309699
    35  H    4.999625   5.436954   6.361371   5.390768   5.791778
    36  O    5.786303   3.626680   4.344877   4.279867   2.785689
    37  H    5.965806   3.735462   4.572816   4.157447   2.858543
    38  H    4.936171   3.036403   3.815640   3.746104   2.431728
                   26         27         28         29         30
    26  C    0.000000
    27  H    1.099759   0.000000
    28  H    1.098367   1.768757   0.000000
    29  H    1.096813   1.768053   1.767528   0.000000
    30  C    3.287266   3.190877   3.548461   4.310318   0.000000
    31  H    4.238882   4.122427   4.318706   5.297920   1.082387
    32  H    3.422371   3.033619   3.916064   4.357396   1.086993
    33  O    5.223713   4.875753   5.863953   6.006401   2.719238
    34  H    5.166744   5.006132   5.844075   5.883226   2.827130
    35  H    5.090125   4.619776   5.847141   5.768233   3.129006
    36  O    3.625267   3.875290   4.609528   2.957418   5.695289
    37  H    4.231739   4.515924   5.234246   3.699558   5.852379
    38  H    2.780629   2.990150   3.823094   2.307815   4.747172
                   31         32         33         34         35
    31  H    0.000000
    32  H    1.809177   0.000000
    33  O    2.941482   2.075785   0.000000
    34  H    3.155881   2.420768   0.959829   0.000000
    35  H    3.560471   2.232964   0.960022   1.532997   0.000000
    36  O    6.773518   5.388895   6.170525   5.840608   5.687128
    37  H    6.904801   5.541561   6.025649   5.584433   5.567064
    38  H    5.828260   4.448322   5.375656   5.098717   4.934141
                   36         37         38
    36  O    0.000000
    37  H    0.957155   0.000000
    38  H    0.972243   1.537718   0.000000
 Stoichiometry    C15H19ClO3
 Framework group  C1[X(C15H19ClO3)]
 Deg. of freedom   108
 Full point group                 C1      NOp   1
 Largest Abelian subgroup         C1      NOp   1
 Largest concise Abelian subgroup C1      NOp   1
                         Standard orientation:                         
 ---------------------------------------------------------------------
 Center     Atomic      Atomic             Coordinates (Angstroms)
 Number     Number       Type             X           Y           Z
 ---------------------------------------------------------------------
      1          6           0       -2.732517    2.458244    0.789372
      2          6           0       -3.006536    1.208467    0.286241
      3          6           0       -1.944384    0.321594   -0.066398
      4          6           0       -0.605015    0.759097    0.106596
      5          6           0       -0.348301    2.059538    0.634185
      6          6           0       -1.388785    2.890897    0.968447
      7          1           0       -3.543438    3.137644    1.061248
      8          1           0       -4.041377    0.888322    0.156348
      9          1           0        0.691840    2.368077    0.770068
     10          1           0       -1.203859    3.886484    1.374100
     11          6           0        0.469359   -0.144646   -0.244831
     12          6           0       -2.156064   -1.000661   -0.573642
     13          6           0        0.221153   -1.414702   -0.720555
     14          1           0        1.030821   -2.099598   -0.975923
     15          6           0       -1.118355   -1.844709   -0.887578
     16          1           0       -1.301866   -2.852867   -1.268700
     17          8           0        1.695001    0.422030   -0.046689
     18         17           0       -3.773726   -1.558612   -0.799447
     19          6           0        2.973626   -0.347732   -0.159938
     20          6           0        2.977025   -1.526632    0.781322
     21          1           0        3.644803   -2.334877    0.469878
     22          6           0        3.167387   -0.743822   -1.615103
     23          1           0        4.215805   -0.998642   -1.825170
     24          1           0        2.565802   -1.618836   -1.900963
     25          1           0        2.893926    0.068105   -2.301749
     26          6           0        3.945630    0.735765    0.300847
     27          1           0        3.586098    1.230561    1.214841
     28          1           0        4.932591    0.311227    0.529069
     29          1           0        4.094318    1.517366   -0.454131
     30          6           0        2.277463   -1.595408    1.909873
     31          1           0        2.315375   -2.447005    2.576887
     32          1           0        1.602348   -0.815966    2.253737
     33          8           0       -0.401898   -1.353698    2.305920
     34          1           0       -0.502591   -1.652142    1.399243
     35          1           0       -0.593531   -0.413037    2.297255
     36          8           0        1.760325    2.584490   -1.923838
     37          1           0        0.994274    2.203512   -2.352986
     38          1           0        1.954482    2.003772   -1.168638
 ---------------------------------------------------------------------
 Rotational constants (GHZ):      0.4855581      0.2510655      0.2132806
 Standard basis: VSTO-6G (5D, 7F)
 There are   101 symmetry adapted cartesian basis functions of A   symmetry.
 There are   100 symmetry adapted basis functions of A   symmetry.
   100 basis functions,   606 primitive gaussians,   101 cartesian basis functions
    52 alpha electrons       52 beta electrons
       nuclear repulsion energy       863.3439862199 Hartrees.
 Integral buffers will be    131072 words long.
 Regular integral format.
 Two-electron integral symmetry is turned off.
 Nuclear repulsion after empirical dispersion term =      863.3273784962 Hartrees.
 ------------------------------------------------------------------------------
 Polarizable Continuum Model (PCM)
 =================================
 Model                : C-PCM.
 Atomic radii         : UFF (Universal Force Field).
 Polarization charges : Total charges.
 Charge compensation  : None.
 Solution method      : On-the-fly selection.
 Cavity type          : Scaled VdW (van der Waals Surface) (Alpha=1.100).
 Cavity algorithm     : GePol (No added spheres)
                        Default sphere list used, NSphG=   38.
                        Lebedev-Laikov grids with approx.  5.0 points / Ang**2.
                        Smoothing algorithm: Karplus/York (Gamma=1.0000).
                        Polarization charges: spherical gaussians, with
                                              point-specific exponents (IZeta= 3).
                        Self-potential: point-specific (ISelfS= 7).
                        Self-field    : sphere-specific E.n sum rule (ISelfD= 2).
 1st derivatives      : Analytical E(r).r(x)/FMM algorithm (CHGder, D1EAlg=3).
                        Cavity 1st derivative terms included.
 Solvent              : Water, Eps=  78.355300 Eps(inf)=   1.777849
 ------------------------------------------------------------------------------
 Do NDO integrals.
 One-electron integrals computed using PRISM.
 PrsmSu:  requested number of processors reduced to:   2 ShMem   1 Linda.
 NBasis=   100 RedAO= F EigKep=  0.00D+00  NBF=   100
 NBsUse=   100 1.00D-04 EigRej=  0.00D+00 NBFU=   100
 Nonelectrostatic core Hamiltonian diagonalized for initial guess.
 Overlap will be assumed to be unity.
 Keep J ints in memory in canonical form, NReq=11649200.
 Requested convergence on RMS density matrix=1.00D-08 within 128 cycles.
 Requested convergence on MAX density matrix=1.00D-06.
 Requested convergence on             energy=1.00D-06.
 No special actions if energy rises.
 Inv3:  Mode=1 IEnd=    20577483.
 Iteration    1 A*A^-1 deviation from unit magnitude is 6.55D-15 for    644.
 Iteration    1 A*A^-1 deviation from orthogonality  is 2.51D-15 for   2597   2495.
 Iteration    1 A^-1*A deviation from unit magnitude is 6.11D-15 for    644.
 Iteration    1 A^-1*A deviation from orthogonality  is 2.43D-15 for   2597   2495.
 Error on total polarization charges = -0.00016
 SCF Done:  E(RPM6D3) = -0.221963293418     A.U. after   22 cycles
            NFock= 21  Conv=0.39D-08     -V/T= 0.9967

 **********************************************************************

            Population analysis using the SCF density.

 **********************************************************************

 Orbital symmetries:
       Occupied  (A) (A) (A) (A) (A) (A) (A) (A) (A) (A) (A) (A)
                 (A) (A) (A) (A) (A) (A) (A) (A) (A) (A) (A) (A)
                 (A) (A) (A) (A) (A) (A) (A) (A) (A) (A) (A) (A)
                 (A) (A) (A) (A) (A) (A) (A) (A) (A) (A) (A) (A)
                 (A) (A) (A) (A)
       Virtual   (A) (A) (A) (A) (A) (A) (A) (A) (A) (A) (A) (A)
                 (A) (A) (A) (A) (A) (A) (A) (A) (A) (A) (A) (A)
                 (A) (A) (A) (A) (A) (A) (A) (A) (A) (A) (A) (A)
                 (A) (A) (A) (A) (A) (A) (A) (A) (A) (A) (A) (A)
 The electronic state is 1-A.
 Alpha  occ. eigenvalues --   -1.15616  -1.13489  -1.10906  -1.10091  -1.08448
 Alpha  occ. eigenvalues --   -1.06896  -1.01064  -0.97803  -0.96937  -0.96713
 Alpha  occ. eigenvalues --   -0.93201  -0.90262  -0.83154  -0.82362  -0.79964
 Alpha  occ. eigenvalues --   -0.78371  -0.72538  -0.69568  -0.69317  -0.66673
 Alpha  occ. eigenvalues --   -0.66255  -0.64166  -0.61707  -0.61021  -0.58855
 Alpha  occ. eigenvalues --   -0.56835  -0.56440  -0.55794  -0.55003  -0.54447
 Alpha  occ. eigenvalues --   -0.53680  -0.52518  -0.52118  -0.51858  -0.51049
 Alpha  occ. eigenvalues --   -0.50244  -0.49808  -0.49374  -0.48022  -0.47579
 Alpha  occ. eigenvalues --   -0.46625  -0.45543  -0.45232  -0.44712  -0.44339
 Alpha  occ. eigenvalues --   -0.42972  -0.41590  -0.41547  -0.39252  -0.38839
 Alpha  occ. eigenvalues --   -0.37232  -0.32923
 Alpha virt. eigenvalues --   -0.03584  -0.02809   0.01006   0.01885   0.02272
 Alpha virt. eigenvalues --    0.03963   0.04399   0.08161   0.10812   0.11786
 Alpha virt. eigenvalues --    0.12199   0.12760   0.13198   0.13724   0.14020
 Alpha virt. eigenvalues --    0.14445   0.14841   0.14950   0.15419   0.15711
 Alpha virt. eigenvalues --    0.16221   0.16282   0.17590   0.17838   0.19026
 Alpha virt. eigenvalues --    0.19333   0.19735   0.19838   0.19994   0.20062
 Alpha virt. eigenvalues --    0.20228   0.20279   0.20962   0.21149   0.21477
 Alpha virt. eigenvalues --    0.21522   0.21579   0.21806   0.22298   0.22465
 Alpha virt. eigenvalues --    0.23140   0.23712   0.24088   3.23181   3.23206
 Alpha virt. eigenvalues --    3.23381   3.24305   3.24356
          Condensed to atoms (all electrons):
               1          2          3          4          5          6
     1  C    4.078934   0.000000   0.000000   0.000000   0.000000   0.000000
     2  C    0.000000   4.206165   0.000000   0.000000   0.000000   0.000000
     3  C    0.000000   0.000000   3.914708   0.000000   0.000000   0.000000
     4  C    0.000000   0.000000   0.000000   4.168996   0.000000   0.000000
     5  C    0.000000   0.000000   0.000000   0.000000   4.093020   0.000000
     6  C    0.000000   0.000000   0.000000   0.000000   0.000000   4.177178
     7  H    0.000000   0.000000   0.000000   0.000000   0.000000   0.000000
     8  H    0.000000   0.000000   0.000000   0.000000   0.000000   0.000000
     9  H    0.000000   0.000000   0.000000   0.000000   0.000000   0.000000
    10  H    0.000000   0.000000   0.000000   0.000000   0.000000   0.000000
    11  C    0.000000   0.000000   0.000000   0.000000   0.000000   0.000000
    12  C    0.000000   0.000000   0.000000   0.000000   0.000000   0.000000
    13  C    0.000000   0.000000   0.000000   0.000000   0.000000   0.000000
    14  H    0.000000   0.000000   0.000000   0.000000   0.000000   0.000000
    15  C    0.000000   0.000000   0.000000   0.000000   0.000000   0.000000
    16  H    0.000000   0.000000   0.000000   0.000000   0.000000   0.000000
    17  O    0.000000   0.000000   0.000000   0.000000   0.000000   0.000000
    18  Cl   0.000000   0.000000   0.000000   0.000000   0.000000   0.000000
    19  C    0.000000   0.000000   0.000000   0.000000   0.000000   0.000000
    20  C    0.000000   0.000000   0.000000   0.000000   0.000000   0.000000
    21  H    0.000000   0.000000   0.000000   0.000000   0.000000   0.000000
    22  C    0.000000   0.000000   0.000000   0.000000   0.000000   0.000000
    23  H    0.000000   0.000000   0.000000   0.000000   0.000000   0.000000
    24  H    0.000000   0.000000   0.000000   0.000000   0.000000   0.000000
    25  H    0.000000   0.000000   0.000000   0.000000   0.000000   0.000000
    26  C    0.000000   0.000000   0.000000   0.000000   0.000000   0.000000
    27  H    0.000000   0.000000   0.000000   0.000000   0.000000   0.000000
    28  H    0.000000   0.000000   0.000000   0.000000   0.000000   0.000000
    29  H    0.000000   0.000000   0.000000   0.000000   0.000000   0.000000
    30  C    0.000000   0.000000   0.000000   0.000000   0.000000   0.000000
    31  H    0.000000   0.000000   0.000000   0.000000   0.000000   0.000000
    32  H    0.000000   0.000000   0.000000   0.000000   0.000000   0.000000
    33  O    0.000000   0.000000   0.000000   0.000000   0.000000   0.000000
    34  H    0.000000   0.000000   0.000000   0.000000   0.000000   0.000000
    35  H    0.000000   0.000000   0.000000   0.000000   0.000000   0.000000
    36  O    0.000000   0.000000   0.000000   0.000000   0.000000   0.000000
    37  H    0.000000   0.000000   0.000000   0.000000   0.000000   0.000000
    38  H    0.000000   0.000000   0.000000   0.000000   0.000000   0.000000
               7          8          9         10         11         12
     1  C    0.000000   0.000000   0.000000   0.000000   0.000000   0.000000
     2  C    0.000000   0.000000   0.000000   0.000000   0.000000   0.000000
     3  C    0.000000   0.000000   0.000000   0.000000   0.000000   0.000000
     4  C    0.000000   0.000000   0.000000   0.000000   0.000000   0.000000
     5  C    0.000000   0.000000   0.000000   0.000000   0.000000   0.000000
     6  C    0.000000   0.000000   0.000000   0.000000   0.000000   0.000000
     7  H    0.839707   0.000000   0.000000   0.000000   0.000000   0.000000
     8  H    0.000000   0.824540   0.000000   0.000000   0.000000   0.000000
     9  H    0.000000   0.000000   0.832051   0.000000   0.000000   0.000000
    10  H    0.000000   0.000000   0.000000   0.832452   0.000000   0.000000
    11  C    0.000000   0.000000   0.000000   0.000000   3.650760   0.000000
    12  C    0.000000   0.000000   0.000000   0.000000   0.000000   4.111646
    13  C    0.000000   0.000000   0.000000   0.000000   0.000000   0.000000
    14  H    0.000000   0.000000   0.000000   0.000000   0.000000   0.000000
    15  C    0.000000   0.000000   0.000000   0.000000   0.000000   0.000000
    16  H    0.000000   0.000000   0.000000   0.000000   0.000000   0.000000
    17  O    0.000000   0.000000   0.000000   0.000000   0.000000   0.000000
    18  Cl   0.000000   0.000000   0.000000   0.000000   0.000000   0.000000
    19  C    0.000000   0.000000   0.000000   0.000000   0.000000   0.000000
    20  C    0.000000   0.000000   0.000000   0.000000   0.000000   0.000000
    21  H    0.000000   0.000000   0.000000   0.000000   0.000000   0.000000
    22  C    0.000000   0.000000   0.000000   0.000000   0.000000   0.000000
    23  H    0.000000   0.000000   0.000000   0.000000   0.000000   0.000000
    24  H    0.000000   0.000000   0.000000   0.000000   0.000000   0.000000
    25  H    0.000000   0.000000   0.000000   0.000000   0.000000   0.000000
    26  C    0.000000   0.000000   0.000000   0.000000   0.000000   0.000000
    27  H    0.000000   0.000000   0.000000   0.000000   0.000000   0.000000
    28  H    0.000000   0.000000   0.000000   0.000000   0.000000   0.000000
    29  H    0.000000   0.000000   0.000000   0.000000   0.000000   0.000000
    30  C    0.000000   0.000000   0.000000   0.000000   0.000000   0.000000
    31  H    0.000000   0.000000   0.000000   0.000000   0.000000   0.000000
    32  H    0.000000   0.000000   0.000000   0.000000   0.000000   0.000000
    33  O    0.000000   0.000000   0.000000   0.000000   0.000000   0.000000
    34  H    0.000000   0.000000   0.000000   0.000000   0.000000   0.000000
    35  H    0.000000   0.000000   0.000000   0.000000   0.000000   0.000000
    36  O    0.000000   0.000000   0.000000   0.000000   0.000000   0.000000
    37  H    0.000000   0.000000   0.000000   0.000000   0.000000   0.000000
    38  H    0.000000   0.000000   0.000000   0.000000   0.000000   0.000000
              13         14         15         16         17         18
     1  C    0.000000   0.000000   0.000000   0.000000   0.000000   0.000000
     2  C    0.000000   0.000000   0.000000   0.000000   0.000000   0.000000
     3  C    0.000000   0.000000   0.000000   0.000000   0.000000   0.000000
     4  C    0.000000   0.000000   0.000000   0.000000   0.000000   0.000000
     5  C    0.000000   0.000000   0.000000   0.000000   0.000000   0.000000
     6  C    0.000000   0.000000   0.000000   0.000000   0.000000   0.000000
     7  H    0.000000   0.000000   0.000000   0.000000   0.000000   0.000000
     8  H    0.000000   0.000000   0.000000   0.000000   0.000000   0.000000
     9  H    0.000000   0.000000   0.000000   0.000000   0.000000   0.000000
    10  H    0.000000   0.000000   0.000000   0.000000   0.000000   0.000000
    11  C    0.000000   0.000000   0.000000   0.000000   0.000000   0.000000
    12  C    0.000000   0.000000   0.000000   0.000000   0.000000   0.000000
    13  C    4.395278   0.000000   0.000000   0.000000   0.000000   0.000000
    14  H    0.000000   0.799108   0.000000   0.000000   0.000000   0.000000
    15  C    0.000000   0.000000   4.050366   0.000000   0.000000   0.000000
    16  H    0.000000   0.000000   0.000000   0.825880   0.000000   0.000000
    17  O    0.000000   0.000000   0.000000   0.000000   6.480989   0.000000
    18  Cl   0.000000   0.000000   0.000000   0.000000   0.000000   7.086126
    19  C    0.000000   0.000000   0.000000   0.000000   0.000000   0.000000
    20  C    0.000000   0.000000   0.000000   0.000000   0.000000   0.000000
    21  H    0.000000   0.000000   0.000000   0.000000   0.000000   0.000000
    22  C    0.000000   0.000000   0.000000   0.000000   0.000000   0.000000
    23  H    0.000000   0.000000   0.000000   0.000000   0.000000   0.000000
    24  H    0.000000   0.000000   0.000000   0.000000   0.000000   0.000000
    25  H    0.000000   0.000000   0.000000   0.000000   0.000000   0.000000
    26  C    0.000000   0.000000   0.000000   0.000000   0.000000   0.000000
    27  H    0.000000   0.000000   0.000000   0.000000   0.000000   0.000000
    28  H    0.000000   0.000000   0.000000   0.000000   0.000000   0.000000
    29  H    0.000000   0.000000   0.000000   0.000000   0.000000   0.000000
    30  C    0.000000   0.000000   0.000000   0.000000   0.000000   0.000000
    31  H    0.000000   0.000000   0.000000   0.000000   0.000000   0.000000
    32  H    0.000000   0.000000   0.000000   0.000000   0.000000   0.000000
    33  O    0.000000   0.000000   0.000000   0.000000   0.000000   0.000000
    34  H    0.000000   0.000000   0.000000   0.000000   0.000000   0.000000
    35  H    0.000000   0.000000   0.000000   0.000000   0.000000   0.000000
    36  O    0.000000   0.000000   0.000000   0.000000   0.000000   0.000000
    37  H    0.000000   0.000000   0.000000   0.000000   0.000000   0.000000
    38  H    0.000000   0.000000   0.000000   0.000000   0.000000   0.000000
              19         20         21         22         23         24
     1  C    0.000000   0.000000   0.000000   0.000000   0.000000   0.000000
     2  C    0.000000   0.000000   0.000000   0.000000   0.000000   0.000000
     3  C    0.000000   0.000000   0.000000   0.000000   0.000000   0.000000
     4  C    0.000000   0.000000   0.000000   0.000000   0.000000   0.000000
     5  C    0.000000   0.000000   0.000000   0.000000   0.000000   0.000000
     6  C    0.000000   0.000000   0.000000   0.000000   0.000000   0.000000
     7  H    0.000000   0.000000   0.000000   0.000000   0.000000   0.000000
     8  H    0.000000   0.000000   0.000000   0.000000   0.000000   0.000000
     9  H    0.000000   0.000000   0.000000   0.000000   0.000000   0.000000
    10  H    0.000000   0.000000   0.000000   0.000000   0.000000   0.000000
    11  C    0.000000   0.000000   0.000000   0.000000   0.000000   0.000000
    12  C    0.000000   0.000000   0.000000   0.000000   0.000000   0.000000
    13  C    0.000000   0.000000   0.000000   0.000000   0.000000   0.000000
    14  H    0.000000   0.000000   0.000000   0.000000   0.000000   0.000000
    15  C    0.000000   0.000000   0.000000   0.000000   0.000000   0.000000
    16  H    0.000000   0.000000   0.000000   0.000000   0.000000   0.000000
    17  O    0.000000   0.000000   0.000000   0.000000   0.000000   0.000000
    18  Cl   0.000000   0.000000   0.000000   0.000000   0.000000   0.000000
    19  C    3.540318   0.000000   0.000000   0.000000   0.000000   0.000000
    20  C    0.000000   4.268984   0.000000   0.000000   0.000000   0.000000
    21  H    0.000000   0.000000   0.830769   0.000000   0.000000   0.000000
    22  C    0.000000   0.000000   0.000000   4.588836   0.000000   0.000000
    23  H    0.000000   0.000000   0.000000   0.000000   0.810253   0.000000
    24  H    0.000000   0.000000   0.000000   0.000000   0.000000   0.817228
    25  H    0.000000   0.000000   0.000000   0.000000   0.000000   0.000000
    26  C    0.000000   0.000000   0.000000   0.000000   0.000000   0.000000
    27  H    0.000000   0.000000   0.000000   0.000000   0.000000   0.000000
    28  H    0.000000   0.000000   0.000000   0.000000   0.000000   0.000000
    29  H    0.000000   0.000000   0.000000   0.000000   0.000000   0.000000
    30  C    0.000000   0.000000   0.000000   0.000000   0.000000   0.000000
    31  H    0.000000   0.000000   0.000000   0.000000   0.000000   0.000000
    32  H    0.000000   0.000000   0.000000   0.000000   0.000000   0.000000
    33  O    0.000000   0.000000   0.000000   0.000000   0.000000   0.000000
    34  H    0.000000   0.000000   0.000000   0.000000   0.000000   0.000000
    35  H    0.000000   0.000000   0.000000   0.000000   0.000000   0.000000
    36  O    0.000000   0.000000   0.000000   0.000000   0.000000   0.000000
    37  H    0.000000   0.000000   0.000000   0.000000   0.000000   0.000000
    38  H    0.000000   0.000000   0.000000   0.000000   0.000000   0.000000
              25         26         27         28         29         30
     1  C    0.000000   0.000000   0.000000   0.000000   0.000000   0.000000
     2  C    0.000000   0.000000   0.000000   0.000000   0.000000   0.000000
     3  C    0.000000   0.000000   0.000000   0.000000   0.000000   0.000000
     4  C    0.000000   0.000000   0.000000   0.000000   0.000000   0.000000
     5  C    0.000000   0.000000   0.000000   0.000000   0.000000   0.000000
     6  C    0.000000   0.000000   0.000000   0.000000   0.000000   0.000000
     7  H    0.000000   0.000000   0.000000   0.000000   0.000000   0.000000
     8  H    0.000000   0.000000   0.000000   0.000000   0.000000   0.000000
     9  H    0.000000   0.000000   0.000000   0.000000   0.000000   0.000000
    10  H    0.000000   0.000000   0.000000   0.000000   0.000000   0.000000
    11  C    0.000000   0.000000   0.000000   0.000000   0.000000   0.000000
    12  C    0.000000   0.000000   0.000000   0.000000   0.000000   0.000000
    13  C    0.000000   0.000000   0.000000   0.000000   0.000000   0.000000
    14  H    0.000000   0.000000   0.000000   0.000000   0.000000   0.000000
    15  C    0.000000   0.000000   0.000000   0.000000   0.000000   0.000000
    16  H    0.000000   0.000000   0.000000   0.000000   0.000000   0.000000
    17  O    0.000000   0.000000   0.000000   0.000000   0.000000   0.000000
    18  Cl   0.000000   0.000000   0.000000   0.000000   0.000000   0.000000
    19  C    0.000000   0.000000   0.000000   0.000000   0.000000   0.000000
    20  C    0.000000   0.000000   0.000000   0.000000   0.000000   0.000000
    21  H    0.000000   0.000000   0.000000   0.000000   0.000000   0.000000
    22  C    0.000000   0.000000   0.000000   0.000000   0.000000   0.000000
    23  H    0.000000   0.000000   0.000000   0.000000   0.000000   0.000000
    24  H    0.000000   0.000000   0.000000   0.000000   0.000000   0.000000
    25  H    0.816488   0.000000   0.000000   0.000000   0.000000   0.000000
    26  C    0.000000   4.555753   0.000000   0.000000   0.000000   0.000000
    27  H    0.000000   0.000000   0.814155   0.000000   0.000000   0.000000
    28  H    0.000000   0.000000   0.000000   0.812687   0.000000   0.000000
    29  H    0.000000   0.000000   0.000000   0.000000   0.821884   0.000000
    30  C    0.000000   0.000000   0.000000   0.000000   0.000000   4.253156
    31  H    0.000000   0.000000   0.000000   0.000000   0.000000   0.000000
    32  H    0.000000   0.000000   0.000000   0.000000   0.000000   0.000000
    33  O    0.000000   0.000000   0.000000   0.000000   0.000000   0.000000
    34  H    0.000000   0.000000   0.000000   0.000000   0.000000   0.000000
    35  H    0.000000   0.000000   0.000000   0.000000   0.000000   0.000000
    36  O    0.000000   0.000000   0.000000   0.000000   0.000000   0.000000
    37  H    0.000000   0.000000   0.000000   0.000000   0.000000   0.000000
    38  H    0.000000   0.000000   0.000000   0.000000   0.000000   0.000000
              31         32         33         34         35         36
     1  C    0.000000   0.000000   0.000000   0.000000   0.000000   0.000000
     2  C    0.000000   0.000000   0.000000   0.000000   0.000000   0.000000
     3  C    0.000000   0.000000   0.000000   0.000000   0.000000   0.000000
     4  C    0.000000   0.000000   0.000000   0.000000   0.000000   0.000000
     5  C    0.000000   0.000000   0.000000   0.000000   0.000000   0.000000
     6  C    0.000000   0.000000   0.000000   0.000000   0.000000   0.000000
     7  H    0.000000   0.000000   0.000000   0.000000   0.000000   0.000000
     8  H    0.000000   0.000000   0.000000   0.000000   0.000000   0.000000
     9  H    0.000000   0.000000   0.000000   0.000000   0.000000   0.000000
    10  H    0.000000   0.000000   0.000000   0.000000   0.000000   0.000000
    11  C    0.000000   0.000000   0.000000   0.000000   0.000000   0.000000
    12  C    0.000000   0.000000   0.000000   0.000000   0.000000   0.000000
    13  C    0.000000   0.000000   0.000000   0.000000   0.000000   0.000000
    14  H    0.000000   0.000000   0.000000   0.000000   0.000000   0.000000
    15  C    0.000000   0.000000   0.000000   0.000000   0.000000   0.000000
    16  H    0.000000   0.000000   0.000000   0.000000   0.000000   0.000000
    17  O    0.000000   0.000000   0.000000   0.000000   0.000000   0.000000
    18  Cl   0.000000   0.000000   0.000000   0.000000   0.000000   0.000000
    19  C    0.000000   0.000000   0.000000   0.000000   0.000000   0.000000
    20  C    0.000000   0.000000   0.000000   0.000000   0.000000   0.000000
    21  H    0.000000   0.000000   0.000000   0.000000   0.000000   0.000000
    22  C    0.000000   0.000000   0.000000   0.000000   0.000000   0.000000
    23  H    0.000000   0.000000   0.000000   0.000000   0.000000   0.000000
    24  H    0.000000   0.000000   0.000000   0.000000   0.000000   0.000000
    25  H    0.000000   0.000000   0.000000   0.000000   0.000000   0.000000
    26  C    0.000000   0.000000   0.000000   0.000000   0.000000   0.000000
    27  H    0.000000   0.000000   0.000000   0.000000   0.000000   0.000000
    28  H    0.000000   0.000000   0.000000   0.000000   0.000000   0.000000
    29  H    0.000000   0.000000   0.000000   0.000000   0.000000   0.000000
    30  C    0.000000   0.000000   0.000000   0.000000   0.000000   0.000000
    31  H    0.846929   0.000000   0.000000   0.000000   0.000000   0.000000
    32  H    0.000000   0.831791   0.000000   0.000000   0.000000   0.000000
    33  O    0.000000   0.000000   6.670497   0.000000   0.000000   0.000000
    34  H    0.000000   0.000000   0.000000   0.669617   0.000000   0.000000
    35  H    0.000000   0.000000   0.000000   0.000000   0.670263   0.000000
    36  O    0.000000   0.000000   0.000000   0.000000   0.000000   6.678634
    37  H    0.000000   0.000000   0.000000   0.000000   0.000000   0.000000
    38  H    0.000000   0.000000   0.000000   0.000000   0.000000   0.000000
              37         38
     1  C    0.000000   0.000000
     2  C    0.000000   0.000000
     3  C    0.000000   0.000000
     4  C    0.000000   0.000000
     5  C    0.000000   0.000000
     6  C    0.000000   0.000000
     7  H    0.000000   0.000000
     8  H    0.000000   0.000000
     9  H    0.000000   0.000000
    10  H    0.000000   0.000000
    11  C    0.000000   0.000000
    12  C    0.000000   0.000000
    13  C    0.000000   0.000000
    14  H    0.000000   0.000000
    15  C    0.000000   0.000000
    16  H    0.000000   0.000000
    17  O    0.000000   0.000000
    18  Cl   0.000000   0.000000
    19  C    0.000000   0.000000
    20  C    0.000000   0.000000
    21  H    0.000000   0.000000
    22  C    0.000000   0.000000
    23  H    0.000000   0.000000
    24  H    0.000000   0.000000
    25  H    0.000000   0.000000
    26  C    0.000000   0.000000
    27  H    0.000000   0.000000
    28  H    0.000000   0.000000
    29  H    0.000000   0.000000
    30  C    0.000000   0.000000
    31  H    0.000000   0.000000
    32  H    0.000000   0.000000
    33  O    0.000000   0.000000
    34  H    0.000000   0.000000
    35  H    0.000000   0.000000
    36  O    0.000000   0.000000
    37  H    0.672214   0.000000
    38  H    0.000000   0.661640
 Mulliken charges:
               1
     1  C   -0.078934
     2  C   -0.206165
     3  C    0.085292
     4  C   -0.168996
     5  C   -0.093020
     6  C   -0.177178
     7  H    0.160293
     8  H    0.175460
     9  H    0.167949
    10  H    0.167548
    11  C    0.349240
    12  C   -0.111646
    13  C   -0.395278
    14  H    0.200892
    15  C   -0.050366
    16  H    0.174120
    17  O   -0.480989
    18  Cl  -0.086126
    19  C    0.459682
    20  C   -0.268984
    21  H    0.169231
    22  C   -0.588836
    23  H    0.189747
    24  H    0.182772
    25  H    0.183512
    26  C   -0.555753
    27  H    0.185845
    28  H    0.187313
    29  H    0.178116
    30  C   -0.253156
    31  H    0.153071
    32  H    0.168209
    33  O   -0.670497
    34  H    0.330383
    35  H    0.329737
    36  O   -0.678634
    37  H    0.327786
    38  H    0.338360
 Sum of Mulliken charges =   0.00000
 Mulliken charges with hydrogens summed into heavy atoms:
               1
     1  C    0.081359
     2  C   -0.030704
     3  C    0.085292
     4  C   -0.168996
     5  C    0.074929
     6  C   -0.009630
    11  C    0.349240
    12  C   -0.111646
    13  C   -0.194386
    15  C    0.123755
    17  O   -0.480989
    18  Cl  -0.086126
    19  C    0.459682
    20  C   -0.099753
    22  C   -0.032805
    26  C   -0.004478
    30  C    0.068124
    33  O   -0.010377
    36  O   -0.012488
 Charge=              0.0000 electrons
 Dipole moment (field-independent basis, Debye):
    X=              2.3841    Y=             -0.5397    Z=             -0.5006  Tot=              2.4951
 N-N= 8.633273784962D+02 E-N=-1.590969758267D+03  KE=-6.752296067100D+01
 PrsmSu:  requested number of processors reduced to:   1 ShMem   1 Linda.
 D1PCM: C-PCM CHGder 1st derivatives, ID1Alg=3 FixD1E=F DoIter=F DoCFld=F I1PDM=0.
 Calling FoFJK, ICntrl=      2127 FMM=F ISym2X=0 I1Cent= 0 IOpClX= 0 NMat=1 NMatS=1 NMatT=0.
 ***** Axes restored to original set *****
 -------------------------------------------------------------------
 Center     Atomic                   Forces (Hartrees/Bohr)
 Number     Number              X              Y              Z
 -------------------------------------------------------------------
      1        6           0.000501055    0.000450886    0.000045637
      2        6           0.000325321   -0.001060863   -0.000266701
      3        6          -0.000942816    0.001973563   -0.000469784
      4        6          -0.000420133    0.001285101   -0.000491867
      5        6           0.000192435   -0.000389721   -0.000097755
      6        6          -0.000452747   -0.000005739   -0.000117426
      7        1          -0.000120649    0.000070313    0.000014849
      8        1          -0.000083279   -0.000032570   -0.000022842
      9        1           0.000119035    0.000012153    0.000072182
     10        1           0.000022950    0.000055636    0.000038332
     11        6           0.004162670    0.003594727   -0.003884848
     12        6          -0.001440058   -0.001401508   -0.000877692
     13        6           0.001093608   -0.000844923   -0.002030592
     14        1           0.000350538   -0.000219300   -0.000428712
     15        6          -0.001691862   -0.000556773   -0.002798094
     16        1          -0.000016619   -0.000298755   -0.000260344
     17        8          -0.002442846   -0.000595717    0.000087533
     18       17           0.001018600    0.000324077    0.000207683
     19        6           0.001396561   -0.001064923    0.000388454
     20        6          -0.000037610   -0.000141744   -0.000683452
     21        1          -0.000157583    0.000072636   -0.000129832
     22        6          -0.000289972    0.000147465    0.000008324
     23        1           0.000026498   -0.000005604    0.000035354
     24        1           0.000086063   -0.000027103   -0.000017879
     25        1           0.000049975   -0.000010627   -0.000029362
     26        6          -0.000347813    0.000115125   -0.000170777
     27        1          -0.000003114    0.000037983    0.000025402
     28        1          -0.000025670   -0.000052822   -0.000000125
     29        1           0.000047284    0.000041541    0.000027628
     30        6           0.003801518   -0.000048050   -0.000116877
     31        1          -0.000358279    0.000023691   -0.000101740
     32        1           0.002226478    0.000455046    0.000291024
     33        8          -0.004678721    0.001353166    0.005458424
     34        1          -0.000688669   -0.003729761    0.004293504
     35        1          -0.001246401    0.000330338    0.002073772
     36        8          -0.000013279   -0.000029059    0.000153691
     37        1          -0.000012369    0.000024006   -0.000067650
     38        1           0.000049902    0.000148109   -0.000157440
 -------------------------------------------------------------------
 Cartesian Forces:  Max     0.005458424 RMS     0.001327226

 GradGradGradGradGradGradGradGradGradGradGradGradGradGradGradGradGradGrad
 Berny optimization.
 FormGI is forming the generalized inverse of G from B-inverse, IUseBI=4.
 Internal  Forces:  Max     0.030899907 RMS     0.005445005
 Search for a local minimum.
 Step number   1 out of a maximum of  204
 All quantities printed in internal units (Hartrees-Bohrs-Radians)
 Mixed Optimization -- RFO/linear search
 Second derivative matrix not updated -- first step.
 ITU=  0
     Eigenvalues ---    0.00230   0.00275   0.00412   0.00412   0.00495
     Eigenvalues ---    0.00516   0.00653   0.01396   0.01650   0.01686
     Eigenvalues ---    0.01699   0.01742   0.01776   0.01864   0.01897
     Eigenvalues ---    0.01949   0.01982   0.01985   0.02043   0.02085
     Eigenvalues ---    0.02111   0.02123   0.02140   0.02158   0.02182
     Eigenvalues ---    0.02252   0.02271   0.02335   0.03020   0.03428
     Eigenvalues ---    0.04172   0.04632   0.05351   0.05356   0.05489
     Eigenvalues ---    0.05518   0.05806   0.07293   0.12669   0.13248
     Eigenvalues ---    0.14968   0.15373   0.15995   0.15999   0.15999
     Eigenvalues ---    0.16000   0.16000   0.16000   0.16000   0.16000
     Eigenvalues ---    0.16000   0.16000   0.16000   0.16000   0.16000
     Eigenvalues ---    0.16000   0.16000   0.16000   0.16373   0.19135
     Eigenvalues ---    0.20161   0.22000   0.22001   0.22498   0.22558
     Eigenvalues ---    0.24487   0.24501   0.24994   0.25000   0.25000
     Eigenvalues ---    0.25000   0.29722   0.30318   0.31495   0.32721
     Eigenvalues ---    0.32933   0.33709   0.33719   0.33771   0.33863
     Eigenvalues ---    0.33910   0.34037   0.34388   0.34421   0.34434
     Eigenvalues ---    0.34549   0.34698   0.34715   0.34720   0.35162
     Eigenvalues ---    0.35707   0.36884   0.37770   0.39241   0.39793
     Eigenvalues ---    0.41195   0.41679   0.42637   0.47735   0.48293
     Eigenvalues ---    0.49333   0.49631   0.51996   0.52523   0.52921
     Eigenvalues ---    0.55510   0.56090   0.59608
 RFO step:  Lambda=-5.16671029D-02 EMin= 2.30000000D-03
 Linear search not attempted -- first point.
 Iteration  1 RMS(Cart)=  0.23488186 RMS(Int)=  0.03750345
 Iteration  2 RMS(Cart)=  0.25031237 RMS(Int)=  0.01923336
 Iteration  3 RMS(Cart)=  0.07707011 RMS(Int)=  0.00188261
 Iteration  4 RMS(Cart)=  0.00280710 RMS(Int)=  0.00126802
 Iteration  5 RMS(Cart)=  0.00001247 RMS(Int)=  0.00126801
 Iteration  6 RMS(Cart)=  0.00000012 RMS(Int)=  0.00126801
 Iteration  1 RMS(Cart)=  0.23281052 RMS(Int)=  0.03174917
 Iteration  2 RMS(Cart)=  0.23903157 RMS(Int)=  0.01538961
 Iteration  3 RMS(Cart)=  0.03780262 RMS(Int)=  0.00106813
 Iteration  4 RMS(Cart)=  0.00071492 RMS(Int)=  0.00102290
 Iteration  5 RMS(Cart)=  0.00000133 RMS(Int)=  0.00102290
 Iteration  6 RMS(Cart)=  0.00000001 RMS(Int)=  0.00102290
 ITry= 2 IFail=0 DXMaxC= 3.41D+00 DCOld= 3.76D+00 DXMaxT= 3.00D-01 DXLimC= 3.00D+00 Rises=F
 Iteration  1 RMS(Cart)=  0.22866181 RMS(Int)=  0.02635775
 Iteration  2 RMS(Cart)=  0.21715890 RMS(Int)=  0.01124609
 Iteration  3 RMS(Cart)=  0.01793404 RMS(Int)=  0.00081207
 Iteration  4 RMS(Cart)=  0.00016901 RMS(Int)=  0.00080486
 Iteration  5 RMS(Cart)=  0.00000064 RMS(Int)=  0.00080486
 ITry= 3 IFail=0 DXMaxC= 3.06D+00 DCOld= 3.41D+00 DXMaxT= 3.00D-01 DXLimC= 3.00D+00 Rises=F
 Iteration  1 RMS(Cart)=  0.22188561 RMS(Int)=  0.02141117
 Iteration  2 RMS(Cart)=  0.16931696 RMS(Int)=  0.00672681
 Iteration  3 RMS(Cart)=  0.01100629 RMS(Int)=  0.00061498
 Iteration  4 RMS(Cart)=  0.00007377 RMS(Int)=  0.00061363
 Iteration  5 RMS(Cart)=  0.00000023 RMS(Int)=  0.00061363
 ITry= 4 IFail=0 DXMaxC= 2.70D+00 DCOld= 3.06D+00 DXMaxT= 3.00D-01 DXLimC= 3.00D+00 Rises=F
 Variable       Old X    -DE/DX   Delta X   Delta X   Delta X     New X
                                 (Linear)    (Quad)   (Total)
    R1        2.59806   0.00054   0.00000   0.00098   0.00068   2.59874
    R2        2.68904  -0.00016   0.00000  -0.00033  -0.00024   2.68880
    R3        2.06413   0.00014   0.00000   0.00035   0.00024   2.06437
    R4        2.69845  -0.00075   0.00000  -0.00164  -0.00115   2.69731
    R5        2.06167   0.00009   0.00000   0.00022   0.00016   2.06183
    R6        2.68264   0.00100   0.00000   0.00200   0.00140   2.68405
    R7        2.70598   0.00177   0.00000   0.00375   0.00259   2.70857
    R8        2.69602  -0.00031   0.00000  -0.00065  -0.00045   2.69557
    R9        2.73491   0.00111   0.00000   0.00257   0.00183   2.73674
   R10        2.59485   0.00023   0.00000   0.00043   0.00030   2.59515
   R11        2.06625   0.00013   0.00000   0.00032   0.00022   2.06647
   R12        2.06140   0.00007   0.00000   0.00017   0.00012   2.06152
   R13        2.60547   0.00256   0.00000   0.00479   0.00339   2.60885
   R14        2.57903  -0.00258   0.00000  -0.00451  -0.00316   2.57587
   R15        2.59644   0.00038   0.00000   0.00067   0.00044   2.59688
   R16        3.26170  -0.00108   0.00000  -0.00284  -0.00199   3.25971
   R17        2.06132   0.00046   0.00000   0.00116   0.00081   2.06214
   R18        2.67721   0.00201   0.00000   0.00426   0.00298   2.68019
   R19        2.06604   0.00035   0.00000   0.00087   0.00061   2.06666
   R20        2.82843   0.00116   0.00000   0.00306   0.00214   2.83058
   R21        3.69730   0.00015   0.00000   0.00156   0.00109   3.69840
   R22        2.85079   0.00920   0.00000   0.02510   0.01757   2.86835
   R23        2.87334  -0.00005   0.00000  -0.00014  -0.00010   2.87324
   R24        2.88521  -0.00013   0.00000  -0.00038  -0.00027   2.88494
   R25        2.06680  -0.00013   0.00000  -0.00033  -0.00023   2.06657
   R26        2.51252   0.01045   0.00000   0.01613   0.01129   2.52380
   R27        2.07719   0.00002   0.00000   0.00005   0.00004   2.07723
   R28        2.07807  -0.00002   0.00000  -0.00004  -0.00003   2.07804
   R29        2.07482   0.00000   0.00000   0.00000   0.00000   2.07482
   R30        2.07824   0.00004   0.00000   0.00010   0.00007   2.07831
   R31        2.07561   0.00000   0.00000  -0.00001  -0.00001   2.07561
   R32        2.07268   0.00001   0.00000   0.00003   0.00002   2.07270
   R33        2.04542  -0.00010   0.00000  -0.00025  -0.00017   2.04524
   R34        2.05412   0.00411   0.00000   0.01019   0.00714   2.06125
   R35        3.92266   0.00559   0.00000   0.06132   0.04256   3.96522
   R36        4.21969   0.00153   0.00000   0.01200   0.00804   4.22773
   R37        1.81381  -0.00214   0.00000  -0.00352  -0.00247   1.81135
   R38        1.81418   0.00089   0.00000   0.00436   0.00470   1.81887
   R39        1.80876   0.00003   0.00000   0.00005   0.00003   1.80879
   R40        1.83727  -0.00007   0.00000  -0.00012  -0.00008   1.83719
    A1        2.10674   0.00012   0.00000   0.00041   0.00028   2.10702
    A2        2.10428  -0.00008   0.00000  -0.00030  -0.00021   2.10407
    A3        2.07216  -0.00004   0.00000  -0.00010  -0.00007   2.07209
    A4        2.10215  -0.00007   0.00000  -0.00034  -0.00024   2.10192
    A5        2.09367   0.00004   0.00000   0.00019   0.00013   2.09381
    A6        2.08735   0.00003   0.00000   0.00015   0.00011   2.08746
    A7        2.07178  -0.00004   0.00000  -0.00001   0.00000   2.07178
    A8        2.15439  -0.00032   0.00000  -0.00086  -0.00061   2.15377
    A9        2.05694   0.00036   0.00000   0.00092   0.00065   2.05759
   A10        2.08950   0.00010   0.00000   0.00036   0.00023   2.08973
   A11        2.06959  -0.00008   0.00000  -0.00033  -0.00017   2.06942
   A12        2.12401  -0.00001   0.00000   0.00005  -0.00002   2.12399
   A13        2.10082  -0.00015   0.00000  -0.00056  -0.00038   2.10043
   A14        2.06501   0.00006   0.00000   0.00022   0.00015   2.06516
   A15        2.11733   0.00009   0.00000   0.00033   0.00023   2.11756
   A16        2.09535   0.00005   0.00000   0.00018   0.00012   2.09547
   A17        2.07645  -0.00001   0.00000  -0.00001  -0.00001   2.07644
   A18        2.11139  -0.00004   0.00000  -0.00017  -0.00012   2.11127
   A19        2.12394  -0.00032   0.00000  -0.00087  -0.00072   2.12322
   A20        1.95211   0.00130   0.00000   0.00417   0.00264   1.95475
   A21        2.20713  -0.00099   0.00000  -0.00341  -0.00266   2.20447
   A22        2.13713   0.00024   0.00000   0.00059   0.00039   2.13753
   A23        2.07532  -0.00008   0.00000  -0.00017  -0.00011   2.07520
   A24        2.07074  -0.00016   0.00000  -0.00042  -0.00028   2.07045
   A25        2.12414  -0.00009   0.00000  -0.00050  -0.00042   2.12372
   A26        2.08344   0.00018   0.00000   0.00100   0.00075   2.08419
   A27        2.07560  -0.00010   0.00000  -0.00056  -0.00047   2.07514
   A28        2.09521  -0.00038   0.00000  -0.00127  -0.00088   2.09433
   A29        2.11688   0.00022   0.00000   0.00079   0.00055   2.11743
   A30        2.07109   0.00016   0.00000   0.00048   0.00033   2.07142
   A31        2.14440   0.00209   0.00000  -0.00081  -0.00122   2.14318
   A32        1.95145  -0.00715   0.00000  -0.05691  -0.04015   1.91131
   A33        1.83288   0.00063   0.00000  -0.00985  -0.00752   1.82536
   A34        1.93544   0.01414   0.00000   0.09849   0.06926   2.00470
   A35        1.89151  -0.01051   0.00000  -0.05273  -0.03719   1.85432
   A36        1.72749   0.00040   0.00000   0.00024   0.00036   1.72785
   A37        1.97498   0.00077   0.00000   0.00267   0.00181   1.97679
   A38        1.94425  -0.00880   0.00000  -0.04512  -0.03174   1.91251
[...]
 504,-0.00074282,0.00094975,0.00028396,-0.00010075,-0.00058770,-0.00027
 348,0.00027807,-0.00002731,0.00012373,0.00006178,-0.00037210,-0.000073
 80,0.00000758,0.00004525,0.00000179,0.00004409,0.00009062,-0.00000127,
 -0.00003776,0.00004640,0.00017598,0.00033080,-0.00014766,0.00000742,-0
 .00007451,-0.00004826,-0.00010398,-0.00001405,-0.00001254,-0.00001128,
 -0.00001242,0.00005684,0.00092478,0.00033836,0.00053976,-0.00058955,0.
 00014404,-0.00036253,-0.00057532,-0.00055434,-0.00023122,-0.05434788,0
 .05818424,0.04432074,0.07510682,-0.00004875,-0.00001507,0.00000169,-0.
 00008930,0.00011590,0.00002770,0.00022335,-0.00013900,0.00015225,-0.00
 011357,0.00007521,-0.00011866,0.00000207,-0.00000335,0.00001696,0.0000
 0585,0.00007285,0.00002685,0.00003978,-0.00002775,-0.00001186,0.000037
 60,0.00001733,0.00000604,-0.00005335,-0.00000407,-0.00001309,-0.000014
 33,-0.00004524,-0.00001608,-0.00019526,-0.00019048,0.00068625,0.000297
 03,0.00002734,0.00000220,-0.00006284,-0.00044297,0.00051536,-0.0000253
 7,0.00003980,-0.00001310,0.00005314,0.00012003,0.00029236,0.00000320,0
 .00001210,0.00000110,0.00006518,-0.00000149,-0.00019863,-0.00024560,-0
 .00004654,-0.00006873,-0.00009357,-0.00009092,0.00028264,0.00005555,-0
 .00004646,-0.00015780,-0.00006637,0.00006162,-0.00000358,0.00004769,0.
 00001630,-0.00011638,-0.00002156,0.00000691,0.00000903,-0.00000985,0.0
 0001048,0.00003215,0.00000612,-0.00001228,0.00001650,0.00009613,0.0000
 8905,-0.00003313,0.00000930,-0.00003023,-0.00002014,-0.00002883,0.0000
 0330,-0.00000167,-0.00000587,-0.00000744,0.00001788,0.00012113,0.00001
 503,0.00005402,-0.00007593,0.00000725,-0.00003102,-0.00047792,-0.00016
 667,-0.00009619,0.05352400,-0.05920648,-0.03797335,-0.07931330,0.08802
 084,0.00026969,0.00020212,0.00006059,0.00024161,-0.00052632,-0.0000976
 6,-0.00018751,0.00101490,-0.00011000,-0.00027245,0.00033649,-0.0000086
 0,0.00011845,-0.00024692,-0.00005046,-0.00024692,-0.00007193,-0.000023
 97,-0.00008965,0.00006899,0.00000708,-0.00009852,-0.00002724,-0.000016
 44,0.00008929,0.00004406,0.00001759,0.00002901,0.00010163,0.00001972,0
 .00172890,0.00159627,-0.00091369,-0.00069352,-0.00106794,-0.00046057,0
 .00020573,-0.00012173,0.00146839,0.00025705,-0.00019803,-0.00049284,-0
 .00108564,0.00022544,-0.00059540,-0.00000568,-0.00022812,-0.00017831,-
 0.00154471,-0.00052248,0.00019019,0.00067645,0.00025543,0.00009813,0.0
 0089414,-0.00036787,-0.00017142,-0.00022044,0.00006315,-0.00007385,0.0
 0006667,-0.00003008,-0.00001803,-0.00021336,0.00006400,0.00019014,0.00
 004233,-0.00000736,-0.00000959,0.00003084,-0.00003345,-0.00005093,0.00
 002446,0.00001037,-0.00005692,-0.00029371,-0.00004224,-0.00003269,0.00
 001956,0.00004300,0.00004467,0.00002763,-0.00002577,0.00001487,0.00003
 195,0.00002474,-0.00002358,-0.00014356,-0.00004329,-0.00019716,-0.0000
 9395,0.00001273,0.00002080,-0.00016165,-0.00003788,0.00017225,0.076574
 39,-0.07674088,-0.10545830,-0.06487401,0.06288526,0.10681294,0.0000044
 2,0.00001579,-0.00000278,-0.00006507,0.00012024,-0.00008183,0.00027011
 ,-0.00023462,0.00023607,-0.00023616,0.00022955,0.00001362,0.00002733,-
 0.00009763,0.00000351,-0.00006615,-0.00000746,0.00000545,-0.00000088,-
 0.00001521,0.00000355,-0.00002544,-0.00001502,-0.00000160,-0.00002430,
 0.00000098,-0.00000213,-0.00000253,0.00001194,0.00000075,-0.00009962,-
 0.00026063,0.00060026,-0.00022647,0.00016540,0.00023133,-0.00014502,-0
 .00021312,-0.00055101,-0.00002104,0.00003825,0.00009763,0.00038747,-0.
 00003721,0.00001984,-0.00001934,0.00002254,0.00002690,0.00005583,0.000
 09396,-0.00015728,0.00000976,0.00001563,-0.00003289,-0.00005054,-0.000
 13715,0.00026513,0.00006786,-0.00003562,-0.00015440,-0.00006557,0.0000
 6766,-0.00000549,0.00003527,0.00001142,-0.00009606,-0.00001936,0.00000
 182,0.00001040,-0.00000014,0.00001226,0.00002242,-0.00000081,-0.000010
 53,0.00001275,0.00006702,0.00008294,-0.00002220,0.00000977,-0.00002311
 ,-0.00002286,-0.00002639,-0.00000121,-0.00000331,-0.00000604,-0.000003
 01,0.00001495,0.00031923,-0.00000971,0.00014248,-0.00007560,0.00001252
 ,-0.00006459,-0.00018126,-0.00009825,-0.00009357,-0.06148396,0.0766095
 2,-0.02024403,-0.02044689,0.02635050,-0.01112379,0.08202525,-0.0000215
 3,0.00003819,0.00001316,0.00001879,-0.00009115,0.00008657,0.00030803,0
 .00034987,0.00004722,-0.00014060,0.00019638,-0.00047003,0.00006422,-0.
 00014546,0.00003041,-0.00004500,0.00011735,0.00002400,0.00005360,-0.00
 003565,-0.00002296,0.00004667,0.00001736,0.00001811,-0.00006918,-0.000
 00175,-0.00001938,-0.00001627,-0.00006007,-0.00002757,-0.00027314,0.00
 014308,-0.00002582,0.00007593,-0.00028733,0.00000047,0.00008118,-0.000
 03144,0.00039084,-0.00002638,-0.00000377,-0.00005790,-0.00018609,0.000
 04076,-0.00009315,0.00000771,0.00000043,-0.00002508,0.00016042,-0.0000
 8420,0.00006715,0.00000197,0.00000857,-0.00005206,-0.00007606,0.000124
 99,-0.00010885,-0.00002580,0.00003883,0.00008289,0.00002883,-0.0000282
 2,0.00001241,0.00001489,-0.00001110,0.00001783,0.00000433,0.00000242,-
 0.00000533,-0.00000981,-0.00000080,-0.00000066,-0.00000033,0.00000240,
 0.00000217,0.00000866,-0.00002670,0.00001943,0.00000710,0.00000087,-0.
 00000004,0.00000833,0.00000557,0.00000329,-0.00000140,-0.00000227,-0.0
 0000347,-0.00013689,-0.00001801,-0.00008178,0.00002516,-0.00001306,0.0
 0005996,0.00010371,0.00000782,0.00003305,0.08142395,-0.10264001,0.0326
 7041,0.02123919,-0.02821702,0.01329511,-0.10264887,0.13060324,0.000162
 76,0.00007848,0.00001639,0.00008675,-0.00012275,-0.00023895,-0.0006347
 6,0.00051937,-0.00111027,0.00017704,0.00011701,0.00028264,0.00001997,-
 0.00000598,-0.00003606,-0.00010063,-0.00016564,-0.00003568,-0.00011769
 ,0.00008564,0.00000918,-0.00014262,-0.00006520,-0.00004485,0.00013185,
 0.00002543,0.00000850,0.00003616,0.00014811,0.00003194,0.00151537,0.00
 050038,-0.00069891,-0.00114730,-0.00040111,0.00012774,-0.00047060,-0.0
 0002874,0.00006575,0.00014301,-0.00010091,-0.00004773,0.00053330,-0.00
 001340,-0.00045988,-0.00005148,-0.00016988,-0.00008218,-0.00105975,-0.
 00012478,0.00003601,0.00072422,0.00032285,0.00007284,0.00056351,-0.000
 35626,0.00001275,-0.00007750,0.00003774,-0.00006701,0.00000918,0.00000
 560,-0.00001197,-0.00013987,0.00004815,0.00008944,0.00002179,-0.000004
 61,-0.00000207,0.00002973,-0.00001629,-0.00002793,0.00001468,0.0000049
 3,-0.00003710,-0.00019391,0.00000612,-0.00004013,0.00001219,0.00002429
 ,0.00002623,0.00000833,-0.00001998,0.00000880,0.00002091,0.00001761,-0
 .00001095,0.00007282,0.00003726,-0.00003637,-0.00000825,-0.00000858,0.
 00002229,0.00000801,0.00000159,0.00002740,-0.05275732,0.07163524,-0.05
 475933,0.02164892,-0.02617436,0.00001568,0.03093986,-0.04588955,0.0569
 5163,0.00013200,0.00012636,-0.00000349,0.00001405,-0.00016613,-0.00006
 319,-0.00010732,0.00012954,0.00003125,-0.00001938,-0.00022036,0.000176
 62,-0.00048403,-0.00000622,0.00086998,-0.00017273,0.00006340,-0.000072
 89,0.00000414,-0.00001280,0.00001347,0.00003153,0.00000569,0.00001694,
 0.00005689,0.00006358,-0.00021308,-0.00001481,-0.00005385,0.00000123,-
 0.00175525,-0.00050779,-0.00036397,0.00005814,-0.00014319,-0.00003809,
 0.00046034,0.00042373,0.00003472,-0.00001330,-0.00007134,-0.00001150,-
 0.00025111,0.00000168,0.00005366,0.00001174,-0.00001578,-0.00000459,0.
 00218933,0.00207804,-0.00163785,0.00003811,0.00002815,-0.00001964,0.00
 036060,-0.00068615,0.00066931,-0.00000872,0.00012941,-0.00013358,0.000
 03256,-0.00003113,-0.00003432,-0.00057681,0.00108816,-0.00004326,0.000
 16764,-0.00004478,-0.00008476,-0.00002089,-0.00014392,-0.00004041,0.00
 018003,-0.00047468,-0.00012253,-0.00107095,0.00026197,-0.00098445,0.00
 005993,0.00010069,0.00024018,0.00014628,0.00002656,0.00001150,0.000420
 82,0.00001885,0.00018106,-0.00001390,0.00007093,-0.00007149,0.00001079
 ,-0.00003509,0.00002741,-0.00001619,0.00003290,0.00003302,0.00001747,0
 .00001308,-0.00003131,-0.00002577,-0.00001399,0.00002316,-0.00000678,-
 0.00000160,0.00001323,0.15239752,0.00007386,0.00003956,0.00001892,-0.0
 0001971,-0.00007904,-0.00002263,-0.00000424,0.00005722,0.00000448,-0.0
 0040118,0.00012062,0.00014121,0.00009974,-0.00005140,-0.00006422,-0.00
 010187,0.00003568,0.00005519,0.00002101,-0.00000870,-0.00000837,0.0000
 4164,0.00001174,0.00000538,-0.00015253,-0.00008338,0.00010941,0.000011
 94,-0.00001206,-0.00002757,0.00211823,0.00078652,0.00036709,0.00005971
 ,0.00011988,0.00005412,-0.00045826,-0.00069609,-0.00017021,-0.00004611
 ,0.00012491,0.00001827,0.00036069,-0.00001120,-0.00002825,-0.00000447,
 0.00005652,0.00002275,-0.00181665,-0.00251437,0.00247617,-0.00014787,-
 0.00005397,-0.00003371,-0.00062297,0.00048569,-0.00079834,0.00005639,-
 0.00011602,0.00017020,-0.00003297,0.00003738,0.00003092,0.00069705,-0.
 00146652,0.00020520,-0.00018496,0.00012200,0.00006104,0.00002804,0.000
 19939,0.00011225,-0.00051854,0.00072513,0.00004998,0.00067202,-0.00010
 374,0.00063384,-0.00003948,-0.00005493,-0.00016411,-0.00010447,0.00001
 540,-0.00005097,-0.00010473,-0.00013896,-0.00003906,-0.00000845,-0.000
 07434,0.00007228,-0.00001108,0.00004641,-0.00003099,0.00002770,-0.0000
 4256,-0.00003075,-0.00003437,-0.00000205,0.00003408,0.00003887,0.00000
 958,-0.00005941,0.00000704,0.00000084,-0.00003590,0.05925148,0.1017736
 8,-0.00033478,-0.00037518,-0.00004489,0.00006221,0.00039678,0.00007524
 ,0.00023825,-0.00020799,0.00000662,0.00054809,-0.00015676,-0.00027368,
 0.00079787,0.00029023,-0.00112754,0.00060915,-0.00024927,0.00000061,-0
 .00007082,0.00007068,0.00001413,-0.00016746,-0.00004775,-0.00001954,-0
 .00014793,0.00009424,0.00025302,0.00007533,0.00022307,0.00005436,-0.00
 371567,-0.00160486,-0.00089005,-0.00018019,-0.00023158,-0.00010004,0.0
 0087277,0.00145704,0.00018676,0.00015755,-0.00022341,-0.00001769,-0.00
 069359,0.00002694,0.00007478,0.00000285,-0.00011703,-0.00002908,0.0025
 9694,0.00650473,-0.00372112,0.00034085,0.00015327,0.00001496,0.0019350
 4,-0.00122776,0.00026925,-0.00025123,0.00031697,-0.00019312,0.00005457
 ,-0.00003365,-0.00008089,-0.00065607,0.00087949,0.00033738,0.00014701,
 -0.00007378,-0.00003845,0.00004244,-0.00016890,-0.00006516,0.00006706,
 0.00005596,-0.00030851,-0.00156622,0.00033925,-0.00102326,0.00010056,0
 .00012784,0.00034575,0.00017871,-0.00000917,0.00003238,0.00030442,0.00
 010277,-0.00003383,0.00000229,0.00011239,-0.00011092,0.00001759,-0.000
 07343,0.00005994,-0.00005079,0.00007491,0.00006188,0.00006793,-0.00000
 701,-0.00008561,-0.00007541,-0.00002230,0.00013107,-0.00001245,-0.0000
 0214,0.00008981,0.10142745,-0.05354109,0.19316616,-0.00000128,-0.00000
 597,0.00000140,-0.00000793,0.00001123,0.00001675,0.00000751,-0.0000184
 8,-0.00003171,-0.00021620,-0.00001285,-0.00001762,-0.00007215,-0.00000
 512,-0.00001028,0.00000418,0.00000915,-0.00000551,0.00000247,-0.000001
 22,-0.00000813,0.00000578,0.00000335,-0.00000748,0.00008029,-0.0000368
 2,-0.00002136,-0.00000535,-0.00001567,-0.00000378,0.00120003,0.0003906
 4,0.00020934,-0.00004311,0.00010085,0.00002770,-0.00032446,-0.00037287
 ,-0.00004081,-0.00000947,0.00005818,0.00000834,0.00022436,0.00001277,-
 0.00003652,-0.00000759,0.00001426,0.00000390,-0.00093494,-0.00097590,0
 .00088491,-0.00003722,-0.00003021,0.00001428,-0.00046120,0.00038713,-0
 .00046568,0.00003304,-0.00008201,0.00009462,-0.00001909,0.00001623,0.0
 0001994,0.00038779,-0.00059426,0.00002168,-0.00008643,0.00003519,0.000
 03264,-0.00000009,0.00009530,0.00003672,-0.00052879,0.00056070,0.00007
 976,0.00043454,-0.00002517,0.00034564,-0.00003717,-0.00004447,-0.00010
 050,-0.00005362,-0.00000279,-0.00001783,-0.00021365,-0.00004008,-0.000
 04071,0.00000424,-0.00003914,0.00003788,-0.00000722,0.00002112,-0.0000
 1665,0.00001115,-0.00001921,-0.00001628,-0.00001540,-0.00000662,0.0000
 2390,0.00001867,0.00000920,-0.00002293,0.00000691,0.00000144,-0.000015
 46,-0.12624079,-0.05542831,-0.07912570,0.14585786,-0.00001757,0.000004
 72,-0.00000746,-0.00000961,0.00000983,0.00000605,-0.00001855,-0.000035
 12,-0.00002407,-0.00001055,-0.00015401,-0.00000846,-0.00009457,0.00005
 043,0.00016495,-0.00000537,0.00000326,-0.00000856,-0.00000239,-0.00000
 379,0.00000362,-0.00000149,0.00000038,-0.00000203,0.00006096,-0.000010
 44,-0.00008122,-0.00000824,-0.00001391,0.00000531,-0.00020011,-0.00033
 473,0.00049167,-0.00002661,0.00001767,-0.00000513,0.00000571,0.0001020
 7,0.00004490,0.00001754,-0.00001855,-0.00000545,-0.00002550,0.00000362
 ,-0.00002433,-0.00000304,-0.00001400,-0.00001031,-0.00005929,-0.000500
 99,-0.00006644,0.00002609,0.00000075,0.00002455,-0.00006791,0.00008880
 ,0.00022018,0.00002127,-0.00002621,-0.00002091,-0.00000196,-0.00000446
 ,0.00000733,-0.00007570,0.00013766,-0.00007255,0.00001004,-0.00003056,
 0.00000440,-0.00001038,-0.00002136,-0.00003653,0.00043575,-0.00040494,
 0.00001495,0.00016841,-0.00009425,0.00008892,-0.00000936,-0.00000652,-
 0.00003963,-0.00001786,-0.00000765,0.00001384,-0.00006959,0.00003396,-
 0.00000270,0.00000810,-0.00000308,0.00000159,-0.00000059,-0.00000106,-
 0.00000205,-0.00000101,-0.00000122,-0.00000615,0.00000076,0.00000090,0
 .00000295,-0.00000059,0.00000453,0.00000569,0.00000280,0.,0.00000119,-
 0.08007334,-0.04797406,-0.03683442,0.06676431,0.04683533,0.00017904,0.
 00019882,0.00003015,-0.00002843,-0.00020419,-0.00004137,-0.00011981,0.
 00011454,0.00000569,-0.00010944,0.00018471,0.00012943,0.00006372,-0.00
 017251,0.00003348,-0.00034997,0.00016210,0.00001100,0.00004350,-0.0000
 3958,-0.00000363,0.00008632,0.00002269,0.00001417,0.00009640,-0.000097
 04,-0.00036703,-0.00003762,-0.00010652,-0.00002245,0.00120112,0.001103
 45,-0.00059702,0.00013902,0.00005941,0.00003436,-0.00023949,-0.0005965
 0,-0.00002063,-0.00008628,0.00009286,-0.00001415,0.00022809,-0.0000085
 4,0.00000433,0.00000659,0.00006168,0.00001086,-0.00015836,-0.00076289,
 0.00064383,-0.00017282,-0.00007640,-0.00000909,-0.00066615,0.00034641,
 -0.00028233,0.00006519,-0.00007663,0.00007484,-0.00001642,0.00000966,0
 .00001853,0.00032556,-0.00031044,-0.00002971,-0.00005083,0.00002027,0.
 00000819,-0.00002912,0.00006769,0.00002089,-0.00022677,0.00021835,0.00
 006488,0.00027750,-0.00001345,0.00018293,-0.00002092,-0.00002835,-0.00
 006817,-0.00002988,0.00001626,-0.00002055,-0.00014850,0.00000107,-0.00
 004791,-0.00000402,-0.00002779,0.00003043,-0.00000588,0.00002139,-0.00
 001613,0.00001560,-0.00002447,-0.00001187,-0.00002001,0.00000264,0.000
 03250,0.00002148,0.00000215,-0.00005478,-0.00000254,0.00000124,-0.0000
 3820,-0.04833191,-0.00749862,-0.04971445,0.08843743,0.02202871,0.07924
 022,-0.00022620,-0.00024829,-0.00003095,0.00000310,0.00030039,0.000074
 40,0.00022203,-0.00016909,-0.00003170,-0.00032337,-0.00021391,-0.00001
 736,-0.00021932,0.00011080,-0.00025692,0.00042901,-0.00013408,-0.00000
 044,-0.00003212,0.00003544,0.00000041,-0.00008809,-0.00002078,-0.00001
 881,-0.00007004,0.00018442,0.00060549,0.00003679,0.00011096,0.00002386
 ,-0.00013574,-0.00128706,0.00091541,-0.00012597,0.00006548,-0.00000385
 ,-0.00019662,0.00019660,0.00002612,0.00009745,-0.00001023,0.00001061,-
 0.00000925,-0.00000730,-0.00003583,-0.00001556,-0.00003370,-0.00000832
 ,-0.00207728,-0.00104945,0.00140726,0.00009268,0.00004251,0.00002329,0
 .00085165,0.00158114,-0.00138686,-0.00025516,-0.00005301,0.00009444,-0
 .00001353,0.00003955,0.00001915,0.00004475,-0.00078644,-0.00005888,-0.
 00012240,0.00009708,0.00006272,0.00005063,0.00009272,0.00001462,0.0000
 3126,0.00037209,0.00033939,0.00090636,-0.00027579,0.00073137,-0.000194
 32,-0.00004971,-0.00057623,-0.00022574,-0.00007660,-0.00000074,-0.0008
 5454,-0.00013402,0.00000065,0.00000716,-0.00007734,0.00007987,0.000002
 13,0.00003286,-0.00001220,0.00001005,-0.00002840,-0.00002938,-0.000005
 59,-0.00000203,-0.00000511,0.00001053,0.00000806,0.00002262,0.00000797
 ,-0.00000476,0.00002019,-0.02598828,-0.00332447,-0.02359679,-0.0189571
 4,0.01328980,-0.04033321,0.04733166,-0.00010589,-0.00007142,-0.0000280
 3,0.00006453,0.00004944,0.00000375,-0.00002761,0.00003873,0.00005068,0
 .00054249,-0.00045646,-0.00001150,-0.00000708,0.00027331,0.00023569,0.
 00013195,-0.00018532,-0.00006830,-0.00004791,0.00002630,0.00000954,-0.
 00007880,-0.00002309,-0.00000452,0.00015282,0.00015429,-0.00024460,0.0
 0001150,0.00006935,0.00003018,-0.00760111,-0.00362681,-0.00065870,-0.0
 0002209,-0.00044698,-0.00017677,0.00149799,0.00209532,0.00034031,0.000
 15472,-0.00030302,-0.00003698,-0.00113557,0.00004195,0.00012235,0.0000
 2037,-0.00012447,-0.00004064,0.00418141,0.00194277,0.00037472,0.000358
 01,0.00014322,0.00003763,0.00330596,-0.00290052,0.00190081,-0.00030991
 ,0.00041543,-0.00038092,0.00008084,-0.00005585,-0.00009718,-0.00104584
 ,0.00128171,0.00038688,0.00025692,-0.00012813,-0.00007645,0.00004883,-
 0.00030008,-0.00013777,0.00051076,-0.00060270,-0.00070845,-0.00114292,
 -0.00004162,-0.00066826,0.00015902,0.00010222,0.00038683,0.00019318,-0
 .00003360,0.00006353,0.00044181,0.00036705,-0.00006743,-0.00000507,0.0
 0018126,-0.00016134,0.00002736,-0.00009680,0.00007693,-0.00006062,0.00
 008631,0.00007683,0.00009057,0.00001218,-0.00010330,-0.00009515,-0.000
 02997,0.00015180,-0.00002369,-0.00000194,0.00008751,0.01877915,-0.0512
 8366,0.08397713,-0.01073116,0.00236607,-0.01468954,-0.00856736,0.05106
 596,0.00027156,0.00032107,0.00005493,-0.00007547,-0.00033562,-0.000063
 62,-0.00020881,0.00012785,-0.00003239,-0.00034667,0.00047062,0.0000183
 1,0.00007039,-0.00022566,0.00023106,-0.00056468,0.00020679,0.00005733,
 0.00007051,-0.00006655,-0.00001792,0.00016110,0.00004674,0.00001505,0.
 00015457,-0.00035969,-0.00038713,-0.00005425,-0.00019097,-0.00005738,0
 .00655655,0.00261436,0.00164885,0.00016357,0.00034961,0.00014159,-0.00
 143350,-0.00200441,-0.00039539,-0.00020924,0.00027621,0.00007704,0.000
 95591,-0.00007634,-0.00017231,-0.00001854,0.00013637,0.00004422,-0.003
 25070,-0.00370402,-0.00067568,-0.00040649,-0.00017994,-0.00002547,-0.0
 0378572,0.00249631,0.00018993,0.00054855,-0.00056478,0.00020200,-0.000
 07367,0.00002737,0.00012967,0.00050318,-0.00041986,-0.00072913,-0.0001
 0479,0.00002828,0.00001095,-0.00005412,0.00010172,0.00006386,0.0002550
 6,-0.00051277,0.00026097,0.00170476,-0.00023467,0.00045801,-0.00034106
 ,-0.00012144,-0.00071007,-0.00022223,-0.00001574,-0.00002351,-0.000466
 29,-0.00021827,0.00044584,0.00000722,-0.00015400,0.00014106,-0.0000257
 9,0.00009188,-0.00008828,0.00006449,-0.00008451,-0.00008824,-0.0001014
 5,-0.00001105,0.00012008,0.00010536,0.00004131,-0.00016728,0.00002842,
 0.00000807,-0.00010973,-0.05151662,0.05796034,-0.13729618,-0.01029214,
 0.01412729,-0.02923210,0.06193059,-0.06995115,0.16596187\\-0.00000605,
 -0.00000609,-0.00000272,-0.00000128,0.00001899,0.00000467,0.00000102,-
 0.00000583,-0.00000053,0.00000072,-0.00000562,-0.00000097,-0.00000124,
 0.00001116,0.00000192,0.00001475,0.00000039,-0.00000106,0.00000432,0.0
 0000532,0.00000116,0.,0.00000280,0.00000101,0.00000205,-0.00000123,-0.
 00000254,0.00000189,0.00000196,-0.00000192,-0.00000495,0.00000258,-0.0
 0000223,0.00001184,0.00000912,0.00000397,-0.00000838,0.00000002,0.0000
 0423,-0.00000089,-0.00000130,0.00000074,-0.00000346,-0.00000515,0.0000
 0215,-0.00000261,0.00000322,0.00000252,0.00000551,0.00000381,-0.000001
 55,-0.00000786,-0.00000053,0.00000317,0.00000420,0.00000239,0.00001404
 ,-0.00000855,0.00000390,-0.00000599,0.00000169,-0.00000706,0.00000155,
 0.00000545,-0.00000519,-0.00000989,-0.00000440,-0.00000391,0.00000131,
 -0.00000407,-0.00000351,0.00000016,-0.00000256,-0.00000558,0.00000140,
 -0.00000309,-0.00000656,-0.00000503,0.00000213,-0.00000130,-0.00000255
 ,-0.00000085,-0.00000286,-0.00000276,0.00000032,-0.00000186,-0.0000043
 4,0.00000435,0.00000501,-0.00001419,-0.00000297,-0.00000165,0.00000794
 ,0.00000263,-0.00000311,0.00000351,-0.00001208,0.00001562,0.00002207,0
 .00001097,-0.00000934,-0.00001773,0.00000080,0.00000251,-0.00000057,-0
 .00004073,-0.00004218,0.00000271,0.00003852,0.00002336,0.00001122,0.00
 000288,0.00000771,-0.00001488\\\@


 IF YOU'RE NOT PART OF THE SOLUTION,
 THEN YOU'RE PART OF THE PRECIPITATE.
 Job cpu time:       0 days  0 hours  0 minutes 58.7 seconds.
 File lengths (MBytes):  RWF=    229 Int=      0 D2E=      0 Chk=     14 Scr=      1
 Normal termination of Gaussian 09 at Fri Aug 21 00:58:29 2020.
