 Entering Gaussian System, Link 0=g09
 Input=freq_PM6_Diels_Alder_4H2O_TS_2.com
 Output=freq_PM6_Diels_Alder_4H2O_TS_2.log
 Initial command:
 /apps/applications/gaussian/G09.D01/2/default/g09/l1.exe "/local/714552.1.40core-192G.q/Gau-368893.inp" -scrdir="/local/714552.1.40core-192G.q/"
 Entering Link 1 = /apps/applications/gaussian/G09.D01/2/default/g09/l1.exe PID=    368894.
  
 Copyright (c) 1988,1990,1992,1993,1995,1998,2003,2009,2013,
            Gaussian, Inc.  All Rights Reserved.
  
 This is part of the Gaussian(R) 09 program.  It is based on
 the Gaussian(R) 03 system (copyright 2003, Gaussian, Inc.),
 the Gaussian(R) 98 system (copyright 1998, Gaussian, Inc.),
 the Gaussian(R) 94 system (copyright 1995, Gaussian, Inc.),
 the Gaussian 92(TM) system (copyright 1992, Gaussian, Inc.),
 the Gaussian 90(TM) system (copyright 1990, Gaussian, Inc.),
 the Gaussian 88(TM) system (copyright 1988, Gaussian, Inc.),
 the Gaussian 86(TM) system (copyright 1986, Carnegie Mellon
 University), and the Gaussian 82(TM) system (copyright 1983,
 Carnegie Mellon University). Gaussian is a federally registered
 trademark of Gaussian, Inc.
  
 This software contains proprietary and confidential information,
 including trade secrets, belonging to Gaussian, Inc.
  
 This software is provided under written license and may be
 used, copied, transmitted, or stored only in accord with that
 written license.
  
 The following legend is applicable only to US Government
 contracts under FAR:
  
                    RESTRICTED RIGHTS LEGEND
  
 Use, reproduction and disclosure by the US Government is
 subject to restrictions as set forth in subparagraphs (a)
 and (c) of the Commercial Computer Software - Restricted
 Rights clause in FAR 52.227-19.
  
 Gaussian, Inc.
 340 Quinnipiac St., Bldg. 40, Wallingford CT 06492
  
  
 ---------------------------------------------------------------
 Warning -- This program may not be used in any manner that
 competes with the business of Gaussian, Inc. or will provide
 assistance to any competitor of Gaussian, Inc.  The licensee
 of this program is prohibited from giving any competitor of
 Gaussian, Inc. access to this program.  By using this program,
 the user acknowledges that Gaussian, Inc. is engaged in the
 business of creating and licensing software in the field of
 computational chemistry and represents and warrants to the
 licensee that it is not a competitor of Gaussian, Inc. and that
 it will not use this program in any manner prohibited above.
 ---------------------------------------------------------------
  

 Cite this work as:
 Gaussian 09, Revision D.01,
 M. J. Frisch, G. W. Trucks, H. B. Schlegel, G. E. Scuseria, 
 M. A. Robb, J. R. Cheeseman, G. Scalmani, V. Barone, B. Mennucci, 
 G. A. Petersson, H. Nakatsuji, M. Caricato, X. Li, H. P. Hratchian, 
 A. F. Izmaylov, J. Bloino, G. Zheng, J. L. Sonnenberg, M. Hada, 
 M. Ehara, K. Toyota, R. Fukuda, J. Hasegawa, M. Ishida, T. Nakajima, 
 Y. Honda, O. Kitao, H. Nakai, T. Vreven, J. A. Montgomery, Jr., 
 J. E. Peralta, F. Ogliaro, M. Bearpark, J. J. Heyd, E. Brothers, 
 K. N. Kudin, V. N. Staroverov, T. Keith, R. Kobayashi, J. Normand, 
 K. Raghavachari, A. Rendell, J. C. Burant, S. S. Iyengar, J. Tomasi, 
 M. Cossi, N. Rega, J. M. Millam, M. Klene, J. E. Knox, J. B. Cross, 
 V. Bakken, C. Adamo, J. Jaramillo, R. Gomperts, R. E. Stratmann, 
 O. Yazyev, A. J. Austin, R. Cammi, C. Pomelli, J. W. Ochterski, 
 R. L. Martin, K. Morokuma, V. G. Zakrzewski, G. A. Voth, 
 P. Salvador, J. J. Dannenberg, S. Dapprich, A. D. Daniels, 
 O. Farkas, J. B. Foresman, J. V. Ortiz, J. Cioslowski, 
 and D. J. Fox, Gaussian, Inc., Wallingford CT, 2013.
 
 ******************************************
 Gaussian 09:  ES64L-G09RevD.01 24-Apr-2013
                27-Aug-2020 
 ******************************************
 %nprocshared=4
 Will use up to    4 processors via shared memory.
 %chk=PM6_Diels_Alder_4H2O.chk
 ----------------------------------------------------------------------
 # freq pm6 scrf=(cpcm,solvent=toluene) geom=connectivity empiricaldisp
 ersion=gd3
 ----------------------------------------------------------------------
 1/10=4,30=1,38=1,57=2/1,3;
 2/12=2,17=6,18=5,40=1/2;
 3/5=2,16=1,25=1,41=3900000,70=2101,71=2,72=13,124=31,140=1/1,2,3;
 4/35=1/1;
 5/5=2,35=1,38=5,53=13,98=1/2;
 8/6=4,10=90,11=11/1;
 11/6=1,8=1,9=11,15=111,16=1/1,2,10;
 10/6=1/2;
 6/7=2,8=2,9=2,10=2,18=1,28=1/1;
 7/8=1,10=1,25=1/1,2,3,16;
 1/10=4,30=1/3;
 99//99;
 -------------------
 Title Card Required
 -------------------
 Symbolic Z-matrix:
 Charge =  0 Multiplicity = 1
 C                     2.26267   1.1328    0.67921 
 C                     1.53817  -0.10937   0.83255 
 C                     0.23057   0.0008    0.34661 
 C                     0.04229   1.48151  -0.03497 
 H                     1.95449  -0.95251   1.35326 
 H                    -0.61936  -0.54258   0.76391 
 C                     1.59686   3.50655  -0.15283 
 H                     0.7165    4.15135   0.04392 
 H                     2.43169   3.85249   0.48332 
 H                     1.89038   3.6345   -1.20907 
 N                     1.29264   2.09634   0.14072 
 O                    -0.97596   2.03762  -0.41295 
 O                     3.40785   1.46551   0.91587 
 C                     1.87418  -2.41181  -0.98987 
 H                     2.08109  -3.44754  -0.69521 
 C                     0.51492  -2.06703  -1.181 
 H                    -0.23261  -2.86583  -1.02082 
 C                     2.90039  -1.51232  -1.07299 
 H                     2.73777  -0.49406  -1.4484 
 C                     4.29245  -1.84717  -0.72569 
 H                     4.53573  -1.49624   0.30802 
 H                     4.51028  -2.925    -0.72578 
 H                     5.02646  -1.35818  -1.38293 
 C                     0.0583   -0.76564  -1.42512 
 H                     0.73121  -0.05548  -1.9336 
 C                    -1.38542  -0.58151  -1.83115 
 H                    -1.60532  -1.04388  -2.81412 
 H                    -1.69131   0.48201  -1.84312 
 C                    -3.22802  -0.81569  -0.15933 
 C                    -3.73135   0.54077  -0.43697 
 H                    -4.19244   0.62937  -1.43387 
 H                    -4.51156   0.84239   0.29395 
 H                    -2.93735   1.31561  -0.37654 
 O                    -2.19437  -1.35682  -0.89793 
 O                    -3.63002  -1.60072   0.68603 
 H                     4.41222   0.18133   1.85362 
 H                    -1.7667    3.9516    0.13162 
 H                    -1.94879  -2.90977   0.65011 
 H                    -5.06937  -0.84711   1.81855 
 O                    -1.17516  -3.45465   0.87488 
 H                    -1.46561  -4.05837   1.55386 
 O                    -5.61489  -0.06793   2.01058 
 H                    -6.23916  -0.33179   2.67998 
 O                    -1.42571   4.49109  -0.5884 
 H                    -1.13369   3.85648  -1.25554 
 O                     4.84567  -0.65665   2.1066 
 H                     5.64149  -0.41421   2.57175 
 

 GradGradGradGradGradGradGradGradGradGradGradGradGradGradGradGradGradGrad
 Berny optimization.
 Initialization pass.
 Trust Radius=3.00D-01 FncErr=1.00D-07 GrdErr=1.00D-07
 Number of steps in this run=      2 maximum allowed number of steps=      2.
 GradGradGradGradGradGradGradGradGradGradGradGradGradGradGradGradGradGrad

                          Input orientation:                          
 ---------------------------------------------------------------------
 Center     Atomic      Atomic             Coordinates (Angstroms)
 Number     Number       Type             X           Y           Z
 ---------------------------------------------------------------------
      1          6           0        2.262674    1.132796    0.679210
      2          6           0        1.538170   -0.109367    0.832545
      3          6           0        0.230569    0.000804    0.346609
      4          6           0        0.042290    1.481512   -0.034969
      5          1           0        1.954486   -0.952505    1.353262
      6          1           0       -0.619358   -0.542576    0.763908
      7          6           0        1.596855    3.506548   -0.152826
      8          1           0        0.716502    4.151354    0.043922
      9          1           0        2.431690    3.852485    0.483320
     10          1           0        1.890382    3.634504   -1.209069
     11          7           0        1.292641    2.096345    0.140716
     12          8           0       -0.975961    2.037624   -0.412950
     13          8           0        3.407854    1.465506    0.915869
     14          6           0        1.874181   -2.411813   -0.989869
     15          1           0        2.081091   -3.447537   -0.695207
     16          6           0        0.514924   -2.067027   -1.181000
     17          1           0       -0.232606   -2.865826   -1.020815
     18          6           0        2.900392   -1.512322   -1.072989
     19          1           0        2.737765   -0.494062   -1.448402
     20          6           0        4.292453   -1.847169   -0.725693
     21          1           0        4.535729   -1.496237    0.308022
     22          1           0        4.510279   -2.925000   -0.725775
     23          1           0        5.026459   -1.358176   -1.382928
     24          6           0        0.058301   -0.765644   -1.425124
     25          1           0        0.731214   -0.055476   -1.933600
     26          6           0       -1.385419   -0.581514   -1.831145
     27          1           0       -1.605315   -1.043877   -2.814115
     28          1           0       -1.691311    0.482013   -1.843121
     29          6           0       -3.228023   -0.815692   -0.159332
     30          6           0       -3.731350    0.540773   -0.436968
     31          1           0       -4.192444    0.629366   -1.433867
     32          1           0       -4.511556    0.842388    0.293946
     33          1           0       -2.937347    1.315607   -0.376544
     34          8           0       -2.194369   -1.356818   -0.897928
     35          8           0       -3.630020   -1.600718    0.686029
     36          1           0        4.412222    0.181325    1.853621
     37          1           0       -1.766699    3.951595    0.131618
     38          1           0       -1.948789   -2.909774    0.650108
     39          1           0       -5.069372   -0.847108    1.818549
     40          8           0       -1.175160   -3.454650    0.874879
     41          1           0       -1.465610   -4.058371    1.553861
     42          8           0       -5.614888   -0.067925    2.010581
     43          1           0       -6.239164   -0.331786    2.679984
     44          8           0       -1.425708    4.491093   -0.588403
     45          1           0       -1.133688    3.856482   -1.255535
     46          8           0        4.845672   -0.656654    2.106596
     47          1           0        5.641486   -0.414208    2.571747
 ---------------------------------------------------------------------
                    Distance matrix (angstroms):
                    1          2          3          4          5
     1  C    0.000000
     2  C    1.446163   0.000000
     3  C    2.349783   1.399318   0.000000
     4  C    2.358338   2.349709   1.540632   0.000000
     5  H    2.213099   1.074871   2.212247   3.392362   0.000000
     6  H    3.334689   2.201660   1.091685   2.274404   2.672088
     7  C    2.601980   3.748232   3.795578   2.555647   4.720101
     8  H    3.450497   4.410307   4.189847   2.754785   5.412610
     9  H    2.731968   4.076347   4.438363   3.405785   4.906368
    10  H    3.156381   4.278880   4.287061   3.070721   5.254551
    11  N    1.469478   2.324667   2.358322   1.404373   3.347207
    12  O    3.535574   3.532943   2.486218   1.220232   4.543996
    13  O    1.215788   2.445994   3.544651   3.497338   2.854885
    14  C    3.937132   2.955563   3.210663   4.407453   2.761574
    15  H    4.785545   3.711087   4.049799   5.374770   3.230703
    16  C    4.093150   2.988951   2.586575   3.758843   3.120414
    17  H    5.010537   3.764128   3.209665   4.466185   3.752387
    18  C    3.236284   2.730383   3.381237   4.267233   2.663612
    19  H    2.720131   2.605712   3.122978   3.628536   2.944999
    20  C    3.869618   3.610282   4.589525   5.442527   3.254008
    21  H    3.495193   3.344233   4.558182   5.401447   2.837426
    22  H    4.846795   4.380592   5.293983   6.313279   3.839949
    23  H    4.253923   4.316944   5.276238   5.892602   4.133802
    24  C    3.590481   2.778089   1.938081   2.642442   3.368956
    25  H    3.253327   2.881951   2.335201   2.538060   3.620016
    26  C    4.748613   3.983157   2.773648   3.085560   4.629584
    27  H    5.648235   4.904379   3.801579   4.100713   5.481566
    28  H    4.734941   4.235383   2.952982   2.696995   5.056337
    29  C    5.886214   4.919279   3.589499   3.998445   5.400468
    30  C    6.125738   5.459138   4.074600   3.909853   6.145204
    31  H    6.810806   6.206632   4.809182   4.540489   6.932182
    32  H    6.791388   6.147773   4.816512   4.610225   6.793636
    33  H    5.309261   4.850021   3.505332   3.003737   5.662737
    34  O    5.343292   4.299130   3.045051   3.715301   4.737544
    35  O    6.495844   5.381058   4.193355   4.848282   5.661456
    36  H    2.627755   3.063866   4.448583   4.934933   2.752525
    37  H    4.947861   5.282506   4.432161   3.066187   6.276132
    38  H    5.837777   4.475985   3.648723   4.870022   4.422769
    39  H    7.679649   6.721315   5.565513   5.914988   7.040041
    40  O    5.735996   4.307536   3.767666   5.164853   4.035377
    41  H    6.450840   5.013743   4.561949   5.957218   4.624251
    42  O    8.079001   7.249533   6.078067   6.211980   7.649181
    43  H    8.856034   7.996838   6.885688   7.079243   8.323544
    44  O    5.146762   5.654016   4.876494   3.393948   6.695411
    45  H    4.764135   5.217937   4.392529   2.917737   6.282436
    46  O    3.451296   3.586405   4.982869   5.677194   3.002332
    47  H    4.170286   4.467097   5.865279   6.460628   3.920260
                    6          7          8          9         10
     6  H    0.000000
     7  C    4.706103   0.000000
     8  H    4.933141   1.108831   0.000000
     9  H    5.357629   1.105126   1.795623   0.000000
    10  H    5.257322   1.103712   1.793074   1.790171   0.000000
    11  N    3.317832   1.472204   2.136438   2.121046   2.131935
    12  O    2.858250   2.974018   2.746091   3.963471   3.376352
    13  O    4.502657   2.930474   3.900955   2.614893   3.394501
    14  C    3.575964   5.983690   6.744191   6.459298   6.050311
    15  H    4.226138   6.991993   7.755744   7.402849   7.103220
    16  C    2.719046   5.769961   6.341083   6.440852   5.865162
    17  H    2.955047   6.686365   7.160676   7.382181   6.840819
    18  C    4.086960   5.266400   6.172041   5.605616   5.246757
    19  H    4.020814   4.357186   5.281328   4.766309   4.221421
    20  C    5.295919   6.021355   7.025810   6.116388   6.004360
    21  H    5.262340   5.820414   6.822868   5.750351   5.968578
    22  H    5.848784   7.083863   8.065976   7.191436   7.079868
    23  H    6.095027   6.077900   7.139086   6.112830   5.898479
    24  C    2.302356   4.715667   5.173799   5.531930   4.771216
    25  H    3.055791   4.075353   4.648465   4.899518   3.935044
    26  C    2.706042   5.331319   5.507630   6.291853   5.375189
    27  H    3.745085   6.167878   6.367860   7.151563   6.056676
    28  H    2.999244   4.776709   4.777296   5.811329   4.813392
    29  C    2.780665   6.477750   6.346033   7.364593   6.863254
    30  C    3.507170   6.104615   5.748995   7.056729   6.463063
    31  H    4.355526   6.590541   6.219808   7.612047   6.788384
    32  H    4.157908   6.679075   6.192282   7.570021   7.144213
    33  H    3.182224   5.040760   4.644229   6.000140   5.420087
    34  O    2.430092   6.211351   6.300810   7.102472   6.457189
    35  O    3.192149   7.355819   7.238155   8.156154   7.840522
    36  H    5.198875   4.796794   5.717909   4.390632   5.259676
    37  H    4.681213   3.404772   2.492766   4.214260   3.907970
    38  H    2.717345   7.374651   7.571708   8.058819   7.811744
    39  H    4.583408   8.202391   7.849220   8.951812   8.814164
    40  O    2.966716   7.562970   7.881635   8.158242   7.999781
    41  H    3.701484   8.337834   8.627926   8.883504   8.836107
    42  O    5.170571   8.334652   7.858534   9.080174   8.966783
    43  H    5.941212   9.173920   8.684967   9.875078   9.846101
    44  O    5.274160   3.208573   2.259274   4.054125   3.480722
    45  H    4.867689   2.965516   2.280075   3.966806   3.032562
    46  O    5.628710   5.743871   6.664954   5.366066   6.175873
    47  H    6.517893   6.257369   7.175634   5.733148   6.690099
                   11         12         13         14         15
    11  N    0.000000
    12  O    2.335926   0.000000
    13  O    2.339433   4.616374   0.000000
    14  C    4.684005   5.315415   4.584495   0.000000
    15  H    5.661718   6.285875   5.337964   1.096523   0.000000
    16  C    4.436828   4.434050   5.024410   1.415270   2.143521
    17  H    5.319650   4.996589   5.980312   2.155374   2.407821
    18  C    4.132847   5.297535   3.616702   1.367151   2.135189
    19  H    3.365098   4.612305   3.143040   2.152626   3.117938
    20  C    5.029994   6.553290   3.801455   2.497329   2.729877
    21  H    4.842753   6.586858   3.226996   3.099458   3.292307
    22  H    6.026434   7.404345   4.815276   2.698540   2.484941
    23  H    5.310047   6.964292   3.984662   3.346865   3.676082
    24  C    3.488041   3.154759   4.655941   2.489325   3.437588
    25  H    3.041105   3.099660   4.194909   2.783761   3.855109
    26  C    4.269797   3.006463   5.891676   3.831805   4.639088
    27  H    5.195206   3.956934   6.733621   4.160050   4.884357
    28  H    3.930095   2.230928   5.880541   4.670653   5.566874
    29  C    5.385758   3.643833   7.098928   5.410164   5.949829
    30  C    5.290936   3.135811   7.324857   6.359673   7.053919
    31  H    5.892156   3.656669   7.999057   6.800724   7.518244
    32  H    5.940083   3.798516   7.968194   7.281184   7.927476
    33  H    4.332425   2.090375   6.477220   6.117240   6.926313
    34  O    5.016209   3.638950   6.529952   4.204113   4.763587
    35  O    6.180472   4.635657   7.680249   5.810571   6.159167
    36  H    4.041427   6.133164   1.880759   4.609930   5.009924
    37  H    3.577932   2.141286   5.794108   7.416650   8.380709
    38  H    5.985614   5.152983   6.921512   4.189581   4.282405
    39  H    7.207930   5.482452   8.833254   7.651695   8.013134
    40  O    6.119034   5.644755   6.724108   3.723342   3.615023
    41  H    6.890969   6.424115   7.393977   4.509537   4.243879
    42  O    7.476257   5.641497   9.217357   8.401349   8.830128
    43  H    8.310944   6.548408   9.970322   9.144435   9.504023
    44  O    3.695383   2.500513   5.897485   7.661629   8.679337
    45  H    3.306761   2.010739   5.572914   6.957685   7.999842
    46  O    4.905886   6.891927   2.826431   4.636641   4.825146
    47  H    5.579000   7.662278   3.356243   5.555909   5.705303
                   16         17         18         19         20
    16  C    0.000000
    17  H    1.105685   0.000000
    18  C    2.451494   3.413264   0.000000
    19  H    2.736192   3.825075   1.097377   0.000000
    20  C    3.811216   4.647679   1.473286   2.184093   0.000000
    21  H    4.325490   5.136010   2.140509   2.705930   1.118438
    22  H    4.111716   4.752421   2.169782   3.094100   1.099622
    23  H    4.571345   5.482873   2.154062   2.447264   1.099926
    24  C    1.400607   2.158439   2.959562   2.693293   4.425714
    25  H    2.158593   3.108085   2.751070   2.110455   4.165528
    26  C    2.498147   2.683970   4.450773   4.141834   5.921329
    27  H    2.865190   2.901681   4.853077   4.585827   6.307967
    28  H    3.435620   3.743265   5.064999   4.552498   6.517604
    29  C    4.076677   3.730647   6.235185   6.111937   7.611982
    30  C    5.038358   4.918028   6.971350   6.628977   8.376577
    31  H    5.430819   5.297858   7.417910   7.020691   8.867255
    32  H    5.992133   5.812819   7.896211   7.574598   9.261963
    33  H    4.899749   5.021463   6.523911   6.052328   7.899055
    34  O    2.815101   2.478048   5.100139   5.037193   6.507609
    35  O    4.569880   4.007023   6.763744   6.806553   8.051042
    36  H    5.427057   6.254753   3.703933   3.763417   3.283595
    37  H    6.569062   7.082286   7.286097   6.523076   8.430538
    38  H    3.183247   2.395663   5.332588   5.674786   6.478816
    39  H    6.455219   5.960832   8.504154   8.470478   9.752797
    40  O    3.001420   2.197448   4.917006   5.428968   5.919512
    41  H    3.920131   3.093771   5.696023   6.275846   6.575794
    42  O    7.194247   6.781340   9.170860   9.050578  10.431122
    43  H    7.970945   7.496400   9.950375   9.882062  11.171839
    44  O    6.864850   7.465570   7.415589   6.551784   8.537551
    45  H    6.149100   6.786492   6.717974   5.826884   7.890207
    46  O    5.617189   6.360035   3.824401   4.136148   3.121736
    47  H    6.564797   7.309028   4.690794   4.959795   3.840101
                   21         22         23         24         25
    21  H    0.000000
    22  H    1.763731   0.000000
    23  H    1.766122   1.775733   0.000000
    24  C    4.856431   4.997201   5.003546   0.000000
    25  H    4.644889   4.896360   4.522101   1.102587   0.000000
    26  C    6.361819   6.439955   6.474278   1.510988   2.183426
    27  H    6.903969   6.730548   6.791723   2.185024   2.685444
    28  H    6.878729   7.163513   6.980437   2.189181   2.483084
    29  C    7.807522   8.040607   8.362293   3.522025   4.404715
    30  C    8.546872   8.945359   9.011108   4.128515   4.744460
    31  H    9.150594   9.427211   9.430858   4.473808   4.996113
    32  H    9.344663   9.829880   9.931169   5.140483   5.766694
    33  H    8.013861   8.577403   8.460741   3.795396   4.214574
    34  O    6.838711   6.887753   7.237098   2.387874   3.365285
    35  O    8.175161   8.367280   8.903597   4.331054   5.317010
    36  H    2.284370   4.038831   3.636289   5.532047   5.286675
    37  H    8.332502   9.350034   8.754114   5.292109   5.153767
    38  H    6.645606   6.604002   7.429319   3.596150   4.690947
    39  H    9.744795  10.127237  10.603605   6.068038   6.953568
    40  O    6.063906   5.930163   6.924809   3.747291   4.803769
    41  H    6.643246   6.495577   7.619891   4.694540   5.745571
    42  O   10.391045  10.870581  11.243617   6.669029   7.471929
    43  H   11.094164  11.570414  12.019775   7.529821   8.363473
    44  O    8.496495   9.500171   8.745037   5.525909   5.208950
    45  H    7.952270   8.838750   8.071945   4.776363   4.386462
    46  O    2.008938   3.644202   3.563930   5.950113   5.797703
    47  H    2.741886   4.296203   4.112030   6.875350   6.673651
                   26         27         28         29         30
    26  C    0.000000
    27  H    1.108316   0.000000
    28  H    1.106708   1.810681   0.000000
    29  C    2.498997   3.119795   2.623103   0.000000
    30  C    2.950703   3.561175   2.478402   1.473234   0.000000
    31  H    3.082767   3.376102   2.538674   2.154702   1.101936
    32  H    4.039337   4.654490   3.556783   2.145262   1.110823
    33  H    2.850160   3.644616   2.097220   2.161969   1.111062
    34  O    1.458215   2.028963   2.127853   1.380863   2.485085
    35  O    3.523234   4.081729   3.806962   1.221680   2.420201
    36  H    6.911734   7.713600   7.142089   7.963628   8.467217
    37  H    4.954482   5.801563   3.992903   4.994712   3.977040
    38  H    3.448883   3.949733   4.217429   2.583953   4.033055
    39  H    5.192525   5.787917   5.156131   2.702511   2.967132
    40  O    3.952428   4.427814   4.811575   3.499705   4.921225
    41  H    4.853167   5.309040   5.674990   4.068918   5.499918
    42  O    5.736814   6.348768   5.527016   3.311314   3.147813
    43  H    6.631100   7.222517   6.465579   4.166875   4.094616
    44  O    5.222774   5.968412   4.209226   5.620890   4.576456
    45  H    4.482243   5.163828   3.470337   5.236135   4.290900
    46  O    7.371428   8.122719   7.721980   8.387149   9.026010
    47  H    8.294025   9.050973   8.606055   9.289143   9.890117
                   31         32         33         34         35
    31  H    0.000000
    32  H    1.769901   0.000000
    33  H    1.778799   1.775282   0.000000
    34  O    2.867832   3.409755   2.822359   0.000000
    35  O    3.127867   2.626709   3.180221   2.151627   0.000000
    36  H    9.222180   9.083138   7.763787   7.320106   8.319652
    37  H    4.401385   4.150634   2.928665   5.424216   5.882815
    38  H    4.680006   4.557779   4.459272   2.206445   2.131069
    39  H    3.677933   2.343068   3.747172   3.988069   1.980471
    40  O    5.577947   5.471157   5.237052   2.929596   3.082055
    41  H    6.191690   5.906150   5.896788   3.720316   3.387899
    42  O    3.791277   2.234468   3.844704   4.671255   2.836123
    43  H    4.694321   3.171197   4.791478   5.496591   3.520466
    44  O    4.825202   4.859429   3.523301   5.906328   6.602524
    45  H    4.449951   4.784940   3.237570   5.332113   6.307327
    46  O    9.791643   9.648344   8.404236   7.686324   8.645613
    47  H   10.669591  10.481015   9.234774   8.621356   9.535437
                   36         37         38         39         40
    36  H    0.000000
    37  H    7.440383   0.000000
    38  H    7.173967   6.883340   0.000000
    39  H    9.537271   6.064729   3.918914   0.000000
    40  O    6.737736   7.466915   0.972581   4.780656   0.000000
    41  H    7.253536   8.140822   1.539320   4.834188   0.953864
    42  O   10.031435   5.873296   4.833971   0.970356   5.698325
    43  H   10.695709   6.696601   5.401272   1.541441   6.217300
    44  O    7.656305   0.962166   7.521991   6.896818   8.083242
    45  H    7.343756   1.527725   7.076587   6.860274   7.615316
    46  O    0.976772   8.298189   7.304971   9.921055   6.752505
    47  H    1.543196   8.938438   8.217836  10.746031   7.654431
                   41         42         43         44         45
    41  H    0.000000
    42  O    5.774839   0.000000
    43  H    6.159741   0.952598   0.000000
    44  O    8.813865   6.714804   7.557240   0.000000
    45  H    8.405223   6.793352   7.687378   0.965956   0.000000
    46  O    7.190930  10.477554  11.104409   8.549417   8.211277
    47  H    8.051511  11.275672  11.881429   9.164811   8.876365
                   46         47
    46  O    0.000000
    47  H    0.953135   0.000000
 Stoichiometry    C13H25NO8
 Framework group  C1[X(C13H25NO8)]
 Deg. of freedom   135
 Full point group                 C1      NOp   1
 Largest Abelian subgroup         C1      NOp   1
 Largest concise Abelian subgroup C1      NOp   1
                         Standard orientation:                         
 ---------------------------------------------------------------------
 Center     Atomic      Atomic             Coordinates (Angstroms)
 Number     Number       Type             X           Y           Z
 ---------------------------------------------------------------------
      1          6           0        2.262674    1.132796    0.679210
      2          6           0        1.538170   -0.109367    0.832545
      3          6           0        0.230569    0.000804    0.346609
      4          6           0        0.042290    1.481512   -0.034969
      5          1           0        1.954486   -0.952505    1.353262
      6          1           0       -0.619358   -0.542576    0.763908
      7          6           0        1.596855    3.506548   -0.152826
      8          1           0        0.716502    4.151354    0.043922
      9          1           0        2.431690    3.852485    0.483320
     10          1           0        1.890382    3.634504   -1.209069
     11          7           0        1.292641    2.096345    0.140716
     12          8           0       -0.975961    2.037624   -0.412950
     13          8           0        3.407854    1.465506    0.915869
     14          6           0        1.874181   -2.411813   -0.989869
     15          1           0        2.081091   -3.447537   -0.695207
     16          6           0        0.514924   -2.067027   -1.181000
     17          1           0       -0.232606   -2.865826   -1.020815
     18          6           0        2.900392   -1.512322   -1.072989
     19          1           0        2.737765   -0.494062   -1.448402
     20          6           0        4.292453   -1.847169   -0.725693
     21          1           0        4.535729   -1.496237    0.308022
     22          1           0        4.510279   -2.925000   -0.725775
     23          1           0        5.026459   -1.358176   -1.382928
     24          6           0        0.058301   -0.765644   -1.425124
     25          1           0        0.731214   -0.055476   -1.933600
     26          6           0       -1.385419   -0.581514   -1.831145
     27          1           0       -1.605315   -1.043877   -2.814115
     28          1           0       -1.691311    0.482013   -1.843121
     29          6           0       -3.228023   -0.815692   -0.159332
     30          6           0       -3.731350    0.540773   -0.436968
     31          1           0       -4.192444    0.629366   -1.433867
     32          1           0       -4.511556    0.842388    0.293946
     33          1           0       -2.937347    1.315607   -0.376544
     34          8           0       -2.194369   -1.356818   -0.897928
     35          8           0       -3.630020   -1.600718    0.686029
     36          1           0        4.412222    0.181325    1.853621
     37          1           0       -1.766699    3.951595    0.131618
     38          1           0       -1.948789   -2.909774    0.650108
     39          1           0       -5.069372   -0.847108    1.818549
     40          8           0       -1.175160   -3.454650    0.874879
     41          1           0       -1.465610   -4.058371    1.553861
     42          8           0       -5.614888   -0.067925    2.010581
     43          1           0       -6.239164   -0.331786    2.679984
     44          8           0       -1.425708    4.491093   -0.588403
     45          1           0       -1.133688    3.856482   -1.255535
     46          8           0        4.845672   -0.656654    2.106596
     47          1           0        5.641486   -0.414208    2.571747
 ---------------------------------------------------------------------
 Rotational constants (GHZ):      0.3025933      0.1743658      0.1323185
 Standard basis: VSTO-6G (5D, 7F)
 There are   113 symmetry adapted cartesian basis functions of A   symmetry.
 There are   113 symmetry adapted basis functions of A   symmetry.
   113 basis functions,   678 primitive gaussians,   113 cartesian basis functions
    65 alpha electrons       65 beta electrons
       nuclear repulsion energy      1200.0818933033 Hartrees.
 Integral buffers will be    131072 words long.
 Regular integral format.
 Two-electron integral symmetry is turned off.
 Nuclear repulsion after empirical dispersion term =     1200.0625463848 Hartrees.
 Force inversion solution in PCM.
 ------------------------------------------------------------------------------
 Polarizable Continuum Model (PCM)
 =================================
 Model                : C-PCM.
 Atomic radii         : UFF (Universal Force Field).
 Polarization charges : Total charges.
 Charge compensation  : None.
 Solution method      : Matrix inversion.
 Cavity type          : Scaled VdW (van der Waals Surface) (Alpha=1.100).
 Cavity algorithm     : GePol (No added spheres)
                        Default sphere list used, NSphG=   47.
                        Lebedev-Laikov grids with approx.  5.0 points / Ang**2.
                        Smoothing algorithm: Karplus/York (Gamma=1.0000).
                        Polarization charges: spherical gaussians, with
                                              point-specific exponents (IZeta= 3).
                        Self-potential: point-specific (ISelfS= 7).
                        Self-field    : sphere-specific E.n sum rule (ISelfD= 2).
 1st derivatives      : Analytical E(r).r(x)/FMM algorithm (CHGder, D1EAlg=3).
                        Cavity 1st derivative terms included.
 2nd derivatives      : Analytical E(r).r(xy)/FMM algorithm (CHGder, D2EAlg=3).
                        Cavity 2nd derivative terms included.
 Solvent              : Toluene, Eps=   2.374100 Eps(inf)=   2.238315
 ------------------------------------------------------------------------------
 Do NDO integrals.
 One-electron integrals computed using PRISM.
 NBasis=   113 RedAO= F EigKep=  0.00D+00  NBF=   113
 NBsUse=   113 1.00D-04 EigRej=  0.00D+00 NBFU=   113
 Simple Huckel Guess.
 Overlap will be assumed to be unity.
 Keep J ints in memory in canonical form, NReq=15189740.
 Requested convergence on RMS density matrix=1.00D-08 within 128 cycles.
 Requested convergence on MAX density matrix=1.00D-06.
 Requested convergence on             energy=1.00D-06.
 No special actions if energy rises.
 Inv3:  Mode=2 IEnd=    21700872.
 Iteration    1 A*A^-1 deviation from unit magnitude is 5.88D-15 for   3281.
 Iteration    1 A*A^-1 deviation from orthogonality  is 2.86D-15 for   3280   3235.
 Iteration    1 A^-1*A deviation from unit magnitude is 5.66D-15 for   3281.
 Iteration    1 A^-1*A deviation from orthogonality  is 2.88D-15 for   1517    748.
 Error on total polarization charges = -0.00023
 SCF Done:  E(RPM6D3) = -0.581082555160     A.U. after   18 cycles
            NFock= 17  Conv=0.86D-08     -V/T= 0.9932
 Range of M.O.s used for correlation:     1   113
 NBasis=   113 NAE=    65 NBE=    65 NFC=     0 NFV=     0
 NROrb=    113 NOA=    65 NOB=    65 NVA=    48 NVB=    48
 Symmetrizing basis deriv contribution to polar:
 IMax=3 JMax=2 DiffMx= 0.00D+00
 G2DrvN: will do    48 centers at a time, making    1 passes.
 Calling FoFCou, ICntrl=  3107 FMM=F I1Cent=   0 AccDes= 0.00D+00.
 NEqPCM:  Using equilibrium solvation (IEInf=0, Eps=   2.3741, EpsInf=   2.2383)
 G2PCM: DoFxE=T DoFxN=T DoGrad=T DoDP/DQ/DG/TGxP=FFFF NFrqRd=   0 IEInf=0 SqF1=F DoCFld=F IF1Alg=4.
 CoulSu:  requested number of processors reduced to:   3 ShMem   1 Linda.
 End of G2Drv F.D. properties file   721 does not exist.
 End of G2Drv F.D. properties file   722 does not exist.
 End of G2Drv F.D. properties file   788 does not exist.
          IDoAtm=11111111111111111111111111111111111111111111111
 NEqPCM:  Using equilibrium solvation (IEInf=0, Eps=   2.3741, EpsInf=   2.2383)
          Differentiating once with respect to electric field.
                with respect to dipole field.
          Differentiating once with respect to nuclear coordinates.
          Electric field/nuclear overlap derivatives assumed to be zero.
 Keep J ints in memory in canonical form, NReq=25080172.
          There are   144 degrees of freedom in the 1st order CPHF.  IDoFFX=5 NUNeed=   144.
 LinEq1:  Iter=  0 NonCon=   144 RMS=1.66D-01 Max=4.83D+00 NDo=   144
 AX will form    72 AO Fock derivatives at one time.
 LinEq1:  Iter=  1 NonCon=   144 RMS=2.74D-02 Max=7.14D-01 NDo=   144
 LinEq1:  Iter=  2 NonCon=   144 RMS=7.37D-03 Max=1.76D-01 NDo=   144
 LinEq1:  Iter=  3 NonCon=   144 RMS=1.56D-03 Max=4.27D-02 NDo=   144
 LinEq1:  Iter=  4 NonCon=   144 RMS=3.41D-04 Max=8.73D-03 NDo=   144
 LinEq1:  Iter=  5 NonCon=   144 RMS=5.41D-05 Max=9.36D-04 NDo=   144
 LinEq1:  Iter=  6 NonCon=   144 RMS=1.12D-05 Max=3.03D-04 NDo=   144
 LinEq1:  Iter=  7 NonCon=   102 RMS=1.98D-06 Max=3.73D-05 NDo=   144
 LinEq1:  Iter=  8 NonCon=    39 RMS=4.18D-07 Max=6.20D-06 NDo=   144
 LinEq1:  Iter=  9 NonCon=     4 RMS=8.02D-08 Max=1.00D-06 NDo=   144
 LinEq1:  Iter= 10 NonCon=     2 RMS=1.71D-08 Max=3.86D-07 NDo=   144
 LinEq1:  Iter= 11 NonCon=     0 RMS=3.08D-09 Max=3.90D-08 NDo=   144
 Linear equations converged to 1.000D-08 1.000D-07 after    11 iterations.
 Isotropic polarizability for W=    0.000000      196.54 Bohr**3.
 End of Minotr F.D. properties file   721 does not exist.
 End of Minotr F.D. properties file   722 does not exist.
 End of Minotr F.D. properties file   788 does not exist.

 **********************************************************************

            Population analysis using the SCF density.

 **********************************************************************

 Orbital symmetries:
       Occupied  (A) (A) (A) (A) (A) (A) (A) (A) (A) (A) (A) (A)
                 (A) (A) (A) (A) (A) (A) (A) (A) (A) (A) (A) (A)
                 (A) (A) (A) (A) (A) (A) (A) (A) (A) (A) (A) (A)
                 (A) (A) (A) (A) (A) (A) (A) (A) (A) (A) (A) (A)
                 (A) (A) (A) (A) (A) (A) (A) (A) (A) (A) (A) (A)
                 (A) (A) (A) (A) (A)
       Virtual   (A) (A) (A) (A) (A) (A) (A) (A) (A) (A) (A) (A)
                 (A) (A) (A) (A) (A) (A) (A) (A) (A) (A) (A) (A)
                 (A) (A) (A) (A) (A) (A) (A) (A) (A) (A) (A) (A)
                 (A) (A) (A) (A) (A) (A) (A) (A) (A) (A) (A) (A)
 The electronic state is 1-A.
 Alpha  occ. eigenvalues --   -1.23388  -1.19459  -1.18689  -1.15435  -1.14063
 Alpha  occ. eigenvalues --   -1.10247  -1.10166  -1.09940  -1.09759  -1.09121
 Alpha  occ. eigenvalues --   -1.04538  -1.02551  -0.99773  -0.96389  -0.90378
 Alpha  occ. eigenvalues --   -0.88439  -0.85555  -0.81611  -0.77563  -0.77345
 Alpha  occ. eigenvalues --   -0.73557  -0.70040  -0.69403  -0.68732  -0.68408
 Alpha  occ. eigenvalues --   -0.67673  -0.67008  -0.64811  -0.63974  -0.63386
 Alpha  occ. eigenvalues --   -0.61925  -0.60586  -0.60101  -0.58615  -0.57550
 Alpha  occ. eigenvalues --   -0.56339  -0.55355  -0.55085  -0.54470  -0.53338
 Alpha  occ. eigenvalues --   -0.53118  -0.52978  -0.52771  -0.52366  -0.51853
 Alpha  occ. eigenvalues --   -0.51697  -0.51228  -0.50950  -0.50683  -0.50357
 Alpha  occ. eigenvalues --   -0.49133  -0.48521  -0.47635  -0.46536  -0.43906
 Alpha  occ. eigenvalues --   -0.43846  -0.43604  -0.43426  -0.43410  -0.42990
 Alpha  occ. eigenvalues --   -0.42689  -0.40203  -0.39866  -0.38456  -0.33180
 Alpha virt. eigenvalues --   -0.06943  -0.01958   0.00517   0.02041   0.02405
 Alpha virt. eigenvalues --    0.02707   0.03950   0.05625   0.08030   0.08640
 Alpha virt. eigenvalues --    0.10707   0.11202   0.11940   0.12134   0.12767
 Alpha virt. eigenvalues --    0.13147   0.14288   0.14532   0.14839   0.15458
 Alpha virt. eigenvalues --    0.15810   0.15921   0.16189   0.16346   0.16564
 Alpha virt. eigenvalues --    0.17386   0.17521   0.17739   0.17874   0.18125
 Alpha virt. eigenvalues --    0.18286   0.18383   0.18621   0.18860   0.19078
 Alpha virt. eigenvalues --    0.19606   0.19655   0.19826   0.20354   0.21396
 Alpha virt. eigenvalues --    0.21668   0.21978   0.22726   0.22757   0.22939
 Alpha virt. eigenvalues --    0.23059   0.23120   0.23417
          Condensed to atoms (all electrons):
               1          2          3          4          5          6
     1  C    3.321066   0.000000   0.000000   0.000000   0.000000   0.000000
     2  C    0.000000   4.604072   0.000000   0.000000   0.000000   0.000000
     3  C    0.000000   0.000000   3.971183   0.000000   0.000000   0.000000
     4  C    0.000000   0.000000   0.000000   3.432004   0.000000   0.000000
     5  H    0.000000   0.000000   0.000000   0.000000   0.783701   0.000000
     6  H    0.000000   0.000000   0.000000   0.000000   0.000000   0.824118
     7  C    0.000000   0.000000   0.000000   0.000000   0.000000   0.000000
     8  H    0.000000   0.000000   0.000000   0.000000   0.000000   0.000000
     9  H    0.000000   0.000000   0.000000   0.000000   0.000000   0.000000
    10  H    0.000000   0.000000   0.000000   0.000000   0.000000   0.000000
    11  N    0.000000   0.000000   0.000000   0.000000   0.000000   0.000000
    12  O    0.000000   0.000000   0.000000   0.000000   0.000000   0.000000
    13  O    0.000000   0.000000   0.000000   0.000000   0.000000   0.000000
    14  C    0.000000   0.000000   0.000000   0.000000   0.000000   0.000000
    15  H    0.000000   0.000000   0.000000   0.000000   0.000000   0.000000
    16  C    0.000000   0.000000   0.000000   0.000000   0.000000   0.000000
    17  H    0.000000   0.000000   0.000000   0.000000   0.000000   0.000000
    18  C    0.000000   0.000000   0.000000   0.000000   0.000000   0.000000
    19  H    0.000000   0.000000   0.000000   0.000000   0.000000   0.000000
    20  C    0.000000   0.000000   0.000000   0.000000   0.000000   0.000000
    21  H    0.000000   0.000000   0.000000   0.000000   0.000000   0.000000
    22  H    0.000000   0.000000   0.000000   0.000000   0.000000   0.000000
    23  H    0.000000   0.000000   0.000000   0.000000   0.000000   0.000000
    24  C    0.000000   0.000000   0.000000   0.000000   0.000000   0.000000
    25  H    0.000000   0.000000   0.000000   0.000000   0.000000   0.000000
    26  C    0.000000   0.000000   0.000000   0.000000   0.000000   0.000000
    27  H    0.000000   0.000000   0.000000   0.000000   0.000000   0.000000
    28  H    0.000000   0.000000   0.000000   0.000000   0.000000   0.000000
    29  C    0.000000   0.000000   0.000000   0.000000   0.000000   0.000000
    30  C    0.000000   0.000000   0.000000   0.000000   0.000000   0.000000
    31  H    0.000000   0.000000   0.000000   0.000000   0.000000   0.000000
    32  H    0.000000   0.000000   0.000000   0.000000   0.000000   0.000000
    33  H    0.000000   0.000000   0.000000   0.000000   0.000000   0.000000
    34  O    0.000000   0.000000   0.000000   0.000000   0.000000   0.000000
    35  O    0.000000   0.000000   0.000000   0.000000   0.000000   0.000000
    36  H    0.000000   0.000000   0.000000   0.000000   0.000000   0.000000
    37  H    0.000000   0.000000   0.000000   0.000000   0.000000   0.000000
    38  H    0.000000   0.000000   0.000000   0.000000   0.000000   0.000000
    39  H    0.000000   0.000000   0.000000   0.000000   0.000000   0.000000
    40  O    0.000000   0.000000   0.000000   0.000000   0.000000   0.000000
    41  H    0.000000   0.000000   0.000000   0.000000   0.000000   0.000000
    42  O    0.000000   0.000000   0.000000   0.000000   0.000000   0.000000
    43  H    0.000000   0.000000   0.000000   0.000000   0.000000   0.000000
    44  O    0.000000   0.000000   0.000000   0.000000   0.000000   0.000000
    45  H    0.000000   0.000000   0.000000   0.000000   0.000000   0.000000
    46  O    0.000000   0.000000   0.000000   0.000000   0.000000   0.000000
    47  H    0.000000   0.000000   0.000000   0.000000   0.000000   0.000000
               7          8          9         10         11         12
     1  C    0.000000   0.000000   0.000000   0.000000   0.000000   0.000000
     2  C    0.000000   0.000000   0.000000   0.000000   0.000000   0.000000
     3  C    0.000000   0.000000   0.000000   0.000000   0.000000   0.000000
     4  C    0.000000   0.000000   0.000000   0.000000   0.000000   0.000000
     5  H    0.000000   0.000000   0.000000   0.000000   0.000000   0.000000
     6  H    0.000000   0.000000   0.000000   0.000000   0.000000   0.000000
     7  C    4.268648   0.000000   0.000000   0.000000   0.000000   0.000000
     8  H    0.000000   0.822289   0.000000   0.000000   0.000000   0.000000
     9  H    0.000000   0.000000   0.829614   0.000000   0.000000   0.000000
    10  H    0.000000   0.000000   0.000000   0.845341   0.000000   0.000000
    11  N    0.000000   0.000000   0.000000   0.000000   5.473692   0.000000
    12  O    0.000000   0.000000   0.000000   0.000000   0.000000   6.586797
    13  O    0.000000   0.000000   0.000000   0.000000   0.000000   0.000000
    14  C    0.000000   0.000000   0.000000   0.000000   0.000000   0.000000
    15  H    0.000000   0.000000   0.000000   0.000000   0.000000   0.000000
    16  C    0.000000   0.000000   0.000000   0.000000   0.000000   0.000000
    17  H    0.000000   0.000000   0.000000   0.000000   0.000000   0.000000
    18  C    0.000000   0.000000   0.000000   0.000000   0.000000   0.000000
    19  H    0.000000   0.000000   0.000000   0.000000   0.000000   0.000000
    20  C    0.000000   0.000000   0.000000   0.000000   0.000000   0.000000
    21  H    0.000000   0.000000   0.000000   0.000000   0.000000   0.000000
    22  H    0.000000   0.000000   0.000000   0.000000   0.000000   0.000000
    23  H    0.000000   0.000000   0.000000   0.000000   0.000000   0.000000
    24  C    0.000000   0.000000   0.000000   0.000000   0.000000   0.000000
    25  H    0.000000   0.000000   0.000000   0.000000   0.000000   0.000000
    26  C    0.000000   0.000000   0.000000   0.000000   0.000000   0.000000
    27  H    0.000000   0.000000   0.000000   0.000000   0.000000   0.000000
    28  H    0.000000   0.000000   0.000000   0.000000   0.000000   0.000000
    29  C    0.000000   0.000000   0.000000   0.000000   0.000000   0.000000
    30  C    0.000000   0.000000   0.000000   0.000000   0.000000   0.000000
    31  H    0.000000   0.000000   0.000000   0.000000   0.000000   0.000000
    32  H    0.000000   0.000000   0.000000   0.000000   0.000000   0.000000
    33  H    0.000000   0.000000   0.000000   0.000000   0.000000   0.000000
    34  O    0.000000   0.000000   0.000000   0.000000   0.000000   0.000000
    35  O    0.000000   0.000000   0.000000   0.000000   0.000000   0.000000
    36  H    0.000000   0.000000   0.000000   0.000000   0.000000   0.000000
    37  H    0.000000   0.000000   0.000000   0.000000   0.000000   0.000000
    38  H    0.000000   0.000000   0.000000   0.000000   0.000000   0.000000
    39  H    0.000000   0.000000   0.000000   0.000000   0.000000   0.000000
    40  O    0.000000   0.000000   0.000000   0.000000   0.000000   0.000000
    41  H    0.000000   0.000000   0.000000   0.000000   0.000000   0.000000
    42  O    0.000000   0.000000   0.000000   0.000000   0.000000   0.000000
    43  H    0.000000   0.000000   0.000000   0.000000   0.000000   0.000000
    44  O    0.000000   0.000000   0.000000   0.000000   0.000000   0.000000
    45  H    0.000000   0.000000   0.000000   0.000000   0.000000   0.000000
    46  O    0.000000   0.000000   0.000000   0.000000   0.000000   0.000000
    47  H    0.000000   0.000000   0.000000   0.000000   0.000000   0.000000
              13         14         15         16         17         18
     1  C    0.000000   0.000000   0.000000   0.000000   0.000000   0.000000
     2  C    0.000000   0.000000   0.000000   0.000000   0.000000   0.000000
     3  C    0.000000   0.000000   0.000000   0.000000   0.000000   0.000000
     4  C    0.000000   0.000000   0.000000   0.000000   0.000000   0.000000
     5  H    0.000000   0.000000   0.000000   0.000000   0.000000   0.000000
     6  H    0.000000   0.000000   0.000000   0.000000   0.000000   0.000000
     7  C    0.000000   0.000000   0.000000   0.000000   0.000000   0.000000
     8  H    0.000000   0.000000   0.000000   0.000000   0.000000   0.000000
     9  H    0.000000   0.000000   0.000000   0.000000   0.000000   0.000000
    10  H    0.000000   0.000000   0.000000   0.000000   0.000000   0.000000
    11  N    0.000000   0.000000   0.000000   0.000000   0.000000   0.000000
    12  O    0.000000   0.000000   0.000000   0.000000   0.000000   0.000000
    13  O    6.565016   0.000000   0.000000   0.000000   0.000000   0.000000
    14  C    0.000000   4.383556   0.000000   0.000000   0.000000   0.000000
    15  H    0.000000   0.000000   0.808998   0.000000   0.000000   0.000000
    16  C    0.000000   0.000000   0.000000   3.847587   0.000000   0.000000
    17  H    0.000000   0.000000   0.000000   0.000000   0.826239   0.000000
    18  C    0.000000   0.000000   0.000000   0.000000   0.000000   3.803949
    19  H    0.000000   0.000000   0.000000   0.000000   0.000000   0.000000
    20  C    0.000000   0.000000   0.000000   0.000000   0.000000   0.000000
    21  H    0.000000   0.000000   0.000000   0.000000   0.000000   0.000000
    22  H    0.000000   0.000000   0.000000   0.000000   0.000000   0.000000
    23  H    0.000000   0.000000   0.000000   0.000000   0.000000   0.000000
    24  C    0.000000   0.000000   0.000000   0.000000   0.000000   0.000000
    25  H    0.000000   0.000000   0.000000   0.000000   0.000000   0.000000
    26  C    0.000000   0.000000   0.000000   0.000000   0.000000   0.000000
    27  H    0.000000   0.000000   0.000000   0.000000   0.000000   0.000000
    28  H    0.000000   0.000000   0.000000   0.000000   0.000000   0.000000
    29  C    0.000000   0.000000   0.000000   0.000000   0.000000   0.000000
    30  C    0.000000   0.000000   0.000000   0.000000   0.000000   0.000000
    31  H    0.000000   0.000000   0.000000   0.000000   0.000000   0.000000
    32  H    0.000000   0.000000   0.000000   0.000000   0.000000   0.000000
    33  H    0.000000   0.000000   0.000000   0.000000   0.000000   0.000000
    34  O    0.000000   0.000000   0.000000   0.000000   0.000000   0.000000
    35  O    0.000000   0.000000   0.000000   0.000000   0.000000   0.000000
    36  H    0.000000   0.000000   0.000000   0.000000   0.000000   0.000000
    37  H    0.000000   0.000000   0.000000   0.000000   0.000000   0.000000
    38  H    0.000000   0.000000   0.000000   0.000000   0.000000   0.000000
    39  H    0.000000   0.000000   0.000000   0.000000   0.000000   0.000000
    40  O    0.000000   0.000000   0.000000   0.000000   0.000000   0.000000
    41  H    0.000000   0.000000   0.000000   0.000000   0.000000   0.000000
    42  O    0.000000   0.000000   0.000000   0.000000   0.000000   0.000000
    43  H    0.000000   0.000000   0.000000   0.000000   0.000000   0.000000
    44  O    0.000000   0.000000   0.000000   0.000000   0.000000   0.000000
    45  H    0.000000   0.000000   0.000000   0.000000   0.000000   0.000000
    46  O    0.000000   0.000000   0.000000   0.000000   0.000000   0.000000
    47  H    0.000000   0.000000   0.000000   0.000000   0.000000   0.000000
              19         20         21         22         23         24
     1  C    0.000000   0.000000   0.000000   0.000000   0.000000   0.000000
     2  C    0.000000   0.000000   0.000000   0.000000   0.000000   0.000000
     3  C    0.000000   0.000000   0.000000   0.000000   0.000000   0.000000
     4  C    0.000000   0.000000   0.000000   0.000000   0.000000   0.000000
     5  H    0.000000   0.000000   0.000000   0.000000   0.000000   0.000000
     6  H    0.000000   0.000000   0.000000   0.000000   0.000000   0.000000
     7  C    0.000000   0.000000   0.000000   0.000000   0.000000   0.000000
     8  H    0.000000   0.000000   0.000000   0.000000   0.000000   0.000000
     9  H    0.000000   0.000000   0.000000   0.000000   0.000000   0.000000
    10  H    0.000000   0.000000   0.000000   0.000000   0.000000   0.000000
    11  N    0.000000   0.000000   0.000000   0.000000   0.000000   0.000000
    12  O    0.000000   0.000000   0.000000   0.000000   0.000000   0.000000
    13  O    0.000000   0.000000   0.000000   0.000000   0.000000   0.000000
    14  C    0.000000   0.000000   0.000000   0.000000   0.000000   0.000000
    15  H    0.000000   0.000000   0.000000   0.000000   0.000000   0.000000
    16  C    0.000000   0.000000   0.000000   0.000000   0.000000   0.000000
    17  H    0.000000   0.000000   0.000000   0.000000   0.000000   0.000000
    18  C    0.000000   0.000000   0.000000   0.000000   0.000000   0.000000
    19  H    0.864928   0.000000   0.000000   0.000000   0.000000   0.000000
    20  C    0.000000   4.571263   0.000000   0.000000   0.000000   0.000000
    21  H    0.000000   0.000000   0.767273   0.000000   0.000000   0.000000
    22  H    0.000000   0.000000   0.000000   0.813360   0.000000   0.000000
    23  H    0.000000   0.000000   0.000000   0.000000   0.813658   0.000000
    24  C    0.000000   0.000000   0.000000   0.000000   0.000000   4.349698
    25  H    0.000000   0.000000   0.000000   0.000000   0.000000   0.000000
    26  C    0.000000   0.000000   0.000000   0.000000   0.000000   0.000000
    27  H    0.000000   0.000000   0.000000   0.000000   0.000000   0.000000
    28  H    0.000000   0.000000   0.000000   0.000000   0.000000   0.000000
    29  C    0.000000   0.000000   0.000000   0.000000   0.000000   0.000000
    30  C    0.000000   0.000000   0.000000   0.000000   0.000000   0.000000
    31  H    0.000000   0.000000   0.000000   0.000000   0.000000   0.000000
    32  H    0.000000   0.000000   0.000000   0.000000   0.000000   0.000000
    33  H    0.000000   0.000000   0.000000   0.000000   0.000000   0.000000
    34  O    0.000000   0.000000   0.000000   0.000000   0.000000   0.000000
    35  O    0.000000   0.000000   0.000000   0.000000   0.000000   0.000000
    36  H    0.000000   0.000000   0.000000   0.000000   0.000000   0.000000
    37  H    0.000000   0.000000   0.000000   0.000000   0.000000   0.000000
    38  H    0.000000   0.000000   0.000000   0.000000   0.000000   0.000000
    39  H    0.000000   0.000000   0.000000   0.000000   0.000000   0.000000
    40  O    0.000000   0.000000   0.000000   0.000000   0.000000   0.000000
    41  H    0.000000   0.000000   0.000000   0.000000   0.000000   0.000000
    42  O    0.000000   0.000000   0.000000   0.000000   0.000000   0.000000
    43  H    0.000000   0.000000   0.000000   0.000000   0.000000   0.000000
    44  O    0.000000   0.000000   0.000000   0.000000   0.000000   0.000000
    45  H    0.000000   0.000000   0.000000   0.000000   0.000000   0.000000
    46  O    0.000000   0.000000   0.000000   0.000000   0.000000   0.000000
    47  H    0.000000   0.000000   0.000000   0.000000   0.000000   0.000000
              25         26         27         28         29         30
     1  C    0.000000   0.000000   0.000000   0.000000   0.000000   0.000000
     2  C    0.000000   0.000000   0.000000   0.000000   0.000000   0.000000
     3  C    0.000000   0.000000   0.000000   0.000000   0.000000   0.000000
     4  C    0.000000   0.000000   0.000000   0.000000   0.000000   0.000000
     5  H    0.000000   0.000000   0.000000   0.000000   0.000000   0.000000
     6  H    0.000000   0.000000   0.000000   0.000000   0.000000   0.000000
     7  C    0.000000   0.000000   0.000000   0.000000   0.000000   0.000000
     8  H    0.000000   0.000000   0.000000   0.000000   0.000000   0.000000
     9  H    0.000000   0.000000   0.000000   0.000000   0.000000   0.000000
    10  H    0.000000   0.000000   0.000000   0.000000   0.000000   0.000000
    11  N    0.000000   0.000000   0.000000   0.000000   0.000000   0.000000
    12  O    0.000000   0.000000   0.000000   0.000000   0.000000   0.000000
    13  O    0.000000   0.000000   0.000000   0.000000   0.000000   0.000000
    14  C    0.000000   0.000000   0.000000   0.000000   0.000000   0.000000
    15  H    0.000000   0.000000   0.000000   0.000000   0.000000   0.000000
    16  C    0.000000   0.000000   0.000000   0.000000   0.000000   0.000000
    17  H    0.000000   0.000000   0.000000   0.000000   0.000000   0.000000
    18  C    0.000000   0.000000   0.000000   0.000000   0.000000   0.000000
    19  H    0.000000   0.000000   0.000000   0.000000   0.000000   0.000000
    20  C    0.000000   0.000000   0.000000   0.000000   0.000000   0.000000
    21  H    0.000000   0.000000   0.000000   0.000000   0.000000   0.000000
    22  H    0.000000   0.000000   0.000000   0.000000   0.000000   0.000000
    23  H    0.000000   0.000000   0.000000   0.000000   0.000000   0.000000
    24  C    0.000000   0.000000   0.000000   0.000000   0.000000   0.000000
    25  H    0.815344   0.000000   0.000000   0.000000   0.000000   0.000000
    26  C    0.000000   3.979092   0.000000   0.000000   0.000000   0.000000
    27  H    0.000000   0.000000   0.848841   0.000000   0.000000   0.000000
    28  H    0.000000   0.000000   0.000000   0.843226   0.000000   0.000000
    29  C    0.000000   0.000000   0.000000   0.000000   3.279834   0.000000
    30  C    0.000000   0.000000   0.000000   0.000000   0.000000   4.659800
    31  H    0.000000   0.000000   0.000000   0.000000   0.000000   0.000000
    32  H    0.000000   0.000000   0.000000   0.000000   0.000000   0.000000
    33  H    0.000000   0.000000   0.000000   0.000000   0.000000   0.000000
    34  O    0.000000   0.000000   0.000000   0.000000   0.000000   0.000000
    35  O    0.000000   0.000000   0.000000   0.000000   0.000000   0.000000
    36  H    0.000000   0.000000   0.000000   0.000000   0.000000   0.000000
    37  H    0.000000   0.000000   0.000000   0.000000   0.000000   0.000000
    38  H    0.000000   0.000000   0.000000   0.000000   0.000000   0.000000
    39  H    0.000000   0.000000   0.000000   0.000000   0.000000   0.000000
    40  O    0.000000   0.000000   0.000000   0.000000   0.000000   0.000000
    41  H    0.000000   0.000000   0.000000   0.000000   0.000000   0.000000
    42  O    0.000000   0.000000   0.000000   0.000000   0.000000   0.000000
    43  H    0.000000   0.000000   0.000000   0.000000   0.000000   0.000000
    44  O    0.000000   0.000000   0.000000   0.000000   0.000000   0.000000
    45  H    0.000000   0.000000   0.000000   0.000000   0.000000   0.000000
    46  O    0.000000   0.000000   0.000000   0.000000   0.000000   0.000000
    47  H    0.000000   0.000000   0.000000   0.000000   0.000000   0.000000
              31         32         33         34         35         36
     1  C    0.000000   0.000000   0.000000   0.000000   0.000000   0.000000
     2  C    0.000000   0.000000   0.000000   0.000000   0.000000   0.000000
     3  C    0.000000   0.000000   0.000000   0.000000   0.000000   0.000000
     4  C    0.000000   0.000000   0.000000   0.000000   0.000000   0.000000
     5  H    0.000000   0.000000   0.000000   0.000000   0.000000   0.000000
     6  H    0.000000   0.000000   0.000000   0.000000   0.000000   0.000000
     7  C    0.000000   0.000000   0.000000   0.000000   0.000000   0.000000
     8  H    0.000000   0.000000   0.000000   0.000000   0.000000   0.000000
     9  H    0.000000   0.000000   0.000000   0.000000   0.000000   0.000000
    10  H    0.000000   0.000000   0.000000   0.000000   0.000000   0.000000
    11  N    0.000000   0.000000   0.000000   0.000000   0.000000   0.000000
    12  O    0.000000   0.000000   0.000000   0.000000   0.000000   0.000000
    13  O    0.000000   0.000000   0.000000   0.000000   0.000000   0.000000
    14  C    0.000000   0.000000   0.000000   0.000000   0.000000   0.000000
    15  H    0.000000   0.000000   0.000000   0.000000   0.000000   0.000000
    16  C    0.000000   0.000000   0.000000   0.000000   0.000000   0.000000
    17  H    0.000000   0.000000   0.000000   0.000000   0.000000   0.000000
    18  C    0.000000   0.000000   0.000000   0.000000   0.000000   0.000000
    19  H    0.000000   0.000000   0.000000   0.000000   0.000000   0.000000
    20  C    0.000000   0.000000   0.000000   0.000000   0.000000   0.000000
    21  H    0.000000   0.000000   0.000000   0.000000   0.000000   0.000000
    22  H    0.000000   0.000000   0.000000   0.000000   0.000000   0.000000
    23  H    0.000000   0.000000   0.000000   0.000000   0.000000   0.000000
    24  C    0.000000   0.000000   0.000000   0.000000   0.000000   0.000000
    25  H    0.000000   0.000000   0.000000   0.000000   0.000000   0.000000
    26  C    0.000000   0.000000   0.000000   0.000000   0.000000   0.000000
    27  H    0.000000   0.000000   0.000000   0.000000   0.000000   0.000000
    28  H    0.000000   0.000000   0.000000   0.000000   0.000000   0.000000
    29  C    0.000000   0.000000   0.000000   0.000000   0.000000   0.000000
    30  C    0.000000   0.000000   0.000000   0.000000   0.000000   0.000000
    31  H    0.782373   0.000000   0.000000   0.000000   0.000000   0.000000
    32  H    0.000000   0.764207   0.000000   0.000000   0.000000   0.000000
    33  H    0.000000   0.000000   0.762910   0.000000   0.000000   0.000000
    34  O    0.000000   0.000000   0.000000   6.491238   0.000000   0.000000
    35  O    0.000000   0.000000   0.000000   0.000000   6.559349   0.000000
    36  H    0.000000   0.000000   0.000000   0.000000   0.000000   0.657325
    37  H    0.000000   0.000000   0.000000   0.000000   0.000000   0.000000
    38  H    0.000000   0.000000   0.000000   0.000000   0.000000   0.000000
    39  H    0.000000   0.000000   0.000000   0.000000   0.000000   0.000000
    40  O    0.000000   0.000000   0.000000   0.000000   0.000000   0.000000
    41  H    0.000000   0.000000   0.000000   0.000000   0.000000   0.000000
    42  O    0.000000   0.000000   0.000000   0.000000   0.000000   0.000000
    43  H    0.000000   0.000000   0.000000   0.000000   0.000000   0.000000
    44  O    0.000000   0.000000   0.000000   0.000000   0.000000   0.000000
    45  H    0.000000   0.000000   0.000000   0.000000   0.000000   0.000000
    46  O    0.000000   0.000000   0.000000   0.000000   0.000000   0.000000
    47  H    0.000000   0.000000   0.000000   0.000000   0.000000   0.000000
              37         38         39         40         41         42
     1  C    0.000000   0.000000   0.000000   0.000000   0.000000   0.000000
     2  C    0.000000   0.000000   0.000000   0.000000   0.000000   0.000000
     3  C    0.000000   0.000000   0.000000   0.000000   0.000000   0.000000
     4  C    0.000000   0.000000   0.000000   0.000000   0.000000   0.000000
     5  H    0.000000   0.000000   0.000000   0.000000   0.000000   0.000000
     6  H    0.000000   0.000000   0.000000   0.000000   0.000000   0.000000
     7  C    0.000000   0.000000   0.000000   0.000000   0.000000   0.000000
     8  H    0.000000   0.000000   0.000000   0.000000   0.000000   0.000000
     9  H    0.000000   0.000000   0.000000   0.000000   0.000000   0.000000
    10  H    0.000000   0.000000   0.000000   0.000000   0.000000   0.000000
    11  N    0.000000   0.000000   0.000000   0.000000   0.000000   0.000000
    12  O    0.000000   0.000000   0.000000   0.000000   0.000000   0.000000
    13  O    0.000000   0.000000   0.000000   0.000000   0.000000   0.000000
    14  C    0.000000   0.000000   0.000000   0.000000   0.000000   0.000000
    15  H    0.000000   0.000000   0.000000   0.000000   0.000000   0.000000
    16  C    0.000000   0.000000   0.000000   0.000000   0.000000   0.000000
    17  H    0.000000   0.000000   0.000000   0.000000   0.000000   0.000000
    18  C    0.000000   0.000000   0.000000   0.000000   0.000000   0.000000
    19  H    0.000000   0.000000   0.000000   0.000000   0.000000   0.000000
    20  C    0.000000   0.000000   0.000000   0.000000   0.000000   0.000000
    21  H    0.000000   0.000000   0.000000   0.000000   0.000000   0.000000
    22  H    0.000000   0.000000   0.000000   0.000000   0.000000   0.000000
    23  H    0.000000   0.000000   0.000000   0.000000   0.000000   0.000000
    24  C    0.000000   0.000000   0.000000   0.000000   0.000000   0.000000
    25  H    0.000000   0.000000   0.000000   0.000000   0.000000   0.000000
    26  C    0.000000   0.000000   0.000000   0.000000   0.000000   0.000000
    27  H    0.000000   0.000000   0.000000   0.000000   0.000000   0.000000
    28  H    0.000000   0.000000   0.000000   0.000000   0.000000   0.000000
    29  C    0.000000   0.000000   0.000000   0.000000   0.000000   0.000000
    30  C    0.000000   0.000000   0.000000   0.000000   0.000000   0.000000
    31  H    0.000000   0.000000   0.000000   0.000000   0.000000   0.000000
    32  H    0.000000   0.000000   0.000000   0.000000   0.000000   0.000000
    33  H    0.000000   0.000000   0.000000   0.000000   0.000000   0.000000
    34  O    0.000000   0.000000   0.000000   0.000000   0.000000   0.000000
    35  O    0.000000   0.000000   0.000000   0.000000   0.000000   0.000000
    36  H    0.000000   0.000000   0.000000   0.000000   0.000000   0.000000
    37  H    0.672791   0.000000   0.000000   0.000000   0.000000   0.000000
    38  H    0.000000   0.660933   0.000000   0.000000   0.000000   0.000000
    39  H    0.000000   0.000000   0.662085   0.000000   0.000000   0.000000
    40  O    0.000000   0.000000   0.000000   6.668986   0.000000   0.000000
    41  H    0.000000   0.000000   0.000000   0.000000   0.678843   0.000000
    42  O    0.000000   0.000000   0.000000   0.000000   0.000000   6.669030
    43  H    0.000000   0.000000   0.000000   0.000000   0.000000   0.000000
    44  O    0.000000   0.000000   0.000000   0.000000   0.000000   0.000000
    45  H    0.000000   0.000000   0.000000   0.000000   0.000000   0.000000
    46  O    0.000000   0.000000   0.000000   0.000000   0.000000   0.000000
    47  H    0.000000   0.000000   0.000000   0.000000   0.000000   0.000000
              43         44         45         46         47
     1  C    0.000000   0.000000   0.000000   0.000000   0.000000
     2  C    0.000000   0.000000   0.000000   0.000000   0.000000
     3  C    0.000000   0.000000   0.000000   0.000000   0.000000
     4  C    0.000000   0.000000   0.000000   0.000000   0.000000
     5  H    0.000000   0.000000   0.000000   0.000000   0.000000
     6  H    0.000000   0.000000   0.000000   0.000000   0.000000
     7  C    0.000000   0.000000   0.000000   0.000000   0.000000
     8  H    0.000000   0.000000   0.000000   0.000000   0.000000
     9  H    0.000000   0.000000   0.000000   0.000000   0.000000
    10  H    0.000000   0.000000   0.000000   0.000000   0.000000
    11  N    0.000000   0.000000   0.000000   0.000000   0.000000
    12  O    0.000000   0.000000   0.000000   0.000000   0.000000
    13  O    0.000000   0.000000   0.000000   0.000000   0.000000
    14  C    0.000000   0.000000   0.000000   0.000000   0.000000
    15  H    0.000000   0.000000   0.000000   0.000000   0.000000
    16  C    0.000000   0.000000   0.000000   0.000000   0.000000
    17  H    0.000000   0.000000   0.000000   0.000000   0.000000
    18  C    0.000000   0.000000   0.000000   0.000000   0.000000
    19  H    0.000000   0.000000   0.000000   0.000000   0.000000
    20  C    0.000000   0.000000   0.000000   0.000000   0.000000
    21  H    0.000000   0.000000   0.000000   0.000000   0.000000
    22  H    0.000000   0.000000   0.000000   0.000000   0.000000
    23  H    0.000000   0.000000   0.000000   0.000000   0.000000
    24  C    0.000000   0.000000   0.000000   0.000000   0.000000
    25  H    0.000000   0.000000   0.000000   0.000000   0.000000
    26  C    0.000000   0.000000   0.000000   0.000000   0.000000
    27  H    0.000000   0.000000   0.000000   0.000000   0.000000
    28  H    0.000000   0.000000   0.000000   0.000000   0.000000
    29  C    0.000000   0.000000   0.000000   0.000000   0.000000
    30  C    0.000000   0.000000   0.000000   0.000000   0.000000
    31  H    0.000000   0.000000   0.000000   0.000000   0.000000
    32  H    0.000000   0.000000   0.000000   0.000000   0.000000
    33  H    0.000000   0.000000   0.000000   0.000000   0.000000
    34  O    0.000000   0.000000   0.000000   0.000000   0.000000
    35  O    0.000000   0.000000   0.000000   0.000000   0.000000
    36  H    0.000000   0.000000   0.000000   0.000000   0.000000
    37  H    0.000000   0.000000   0.000000   0.000000   0.000000
    38  H    0.000000   0.000000   0.000000   0.000000   0.000000
    39  H    0.000000   0.000000   0.000000   0.000000   0.000000
    40  O    0.000000   0.000000   0.000000   0.000000   0.000000
    41  H    0.000000   0.000000   0.000000   0.000000   0.000000
    42  O    0.000000   0.000000   0.000000   0.000000   0.000000
    43  H    0.678634   0.000000   0.000000   0.000000   0.000000
    44  O    0.000000   6.663711   0.000000   0.000000   0.000000
    45  H    0.000000   0.000000   0.670232   0.000000   0.000000
    46  O    0.000000   0.000000   0.000000   6.673744   0.000000
    47  H    0.000000   0.000000   0.000000   0.000000   0.679420
 Mulliken charges:
               1
     1  C    0.678934
     2  C   -0.604072
     3  C    0.028817
     4  C    0.567996
     5  H    0.216299
     6  H    0.175882
     7  C   -0.268648
     8  H    0.177711
     9  H    0.170386
    10  H    0.154659
    11  N   -0.473692
    12  O   -0.586797
    13  O   -0.565016
    14  C   -0.383556
    15  H    0.191002
    16  C    0.152413
    17  H    0.173761
    18  C    0.196051
    19  H    0.135072
    20  C   -0.571263
    21  H    0.232727
    22  H    0.186640
    23  H    0.186342
    24  C   -0.349698
    25  H    0.184656
    26  C    0.020908
    27  H    0.151159
    28  H    0.156774
    29  C    0.720166
    30  C   -0.659800
    31  H    0.217627
    32  H    0.235793
    33  H    0.237090
    34  O   -0.491238
    35  O   -0.559349
    36  H    0.342675
    37  H    0.327209
    38  H    0.339067
    39  H    0.337915
    40  O   -0.668986
    41  H    0.321157
    42  O   -0.669030
    43  H    0.321366
    44  O   -0.663711
    45  H    0.329768
    46  O   -0.673744
    47  H    0.320580
 Sum of Mulliken charges =   0.00000
 Mulliken charges with hydrogens summed into heavy atoms:
               1
     1  C    0.678934
     2  C   -0.387773
     3  C    0.204699
     4  C    0.567996
     7  C    0.234108
    11  N   -0.473692
    12  O   -0.586797
    13  O   -0.565016
    14  C   -0.192553
    16  C    0.326173
    18  C    0.331123
    20  C    0.034446
    24  C   -0.165042
    26  C    0.328840
    29  C    0.720166
    30  C    0.030710
    34  O   -0.491238
    35  O   -0.559349
    40  O   -0.008762
    42  O   -0.009749
    44  O   -0.006734
    46  O   -0.010489
 APT charges:
               1
     1  C    2.297504
     2  C   -1.350436
     3  C    0.872095
     4  C    1.516860
     5  H    0.219969
     6  H    0.067605
     7  C   -0.301561
     8  H    0.217940
     9  H    0.201703
    10  H    0.154933
    11  N   -1.284716
    12  O   -1.162953
    13  O   -1.261476
    14  C   -1.008382
    15  H    0.259709
    16  C    0.871715
    17  H    0.277091
    18  C    0.657281
    19  H    0.070282
    20  C   -1.001229
    21  H    0.320669
    22  H    0.253433
    23  H    0.247134
    24  C   -1.656205
    25  H    0.234088
    26  C    0.391863
    27  H    0.117917
    28  H    0.161379
    29  C    1.883752
    30  C   -1.142675
    31  H    0.303256
    32  H    0.329668
    33  H    0.361152
    34  O   -1.108345
    35  O   -1.142830
    36  H    0.510250
    37  H    0.403723
    38  H    0.431224
    39  H    0.475907
    40  O   -0.775268
    41  H    0.361616
    42  O   -0.808850
    43  H    0.375307
    44  O   -0.806563
    45  H    0.427099
    46  O   -0.840617
    47  H    0.378139
 Sum of APT charges =   0.00016
 APT charges with hydrogens summed into heavy atoms:
               1
     1  C    2.297504
     2  C   -1.130468
     3  C    0.939700
     4  C    1.516860
     7  C    0.273014
    11  N   -1.284716
    12  O   -1.162953
    13  O   -1.261476
    14  C   -0.748673
    16  C    1.148806
    18  C    0.727563
    20  C   -0.179992
    24  C   -1.422117
    26  C    0.671159
    29  C    1.883752
    30  C   -0.148599
    34  O   -1.108345
    35  O   -1.142830
    40  O    0.017572
    42  O    0.042364
    44  O    0.024259
    46  O    0.047772
 Charge=              0.0000 electrons
 Dipole moment (field-independent basis, Debye):
    X=              1.2858    Y=             -3.0038    Z=             -3.6708  Tot=              4.9143
 N-N= 1.200062546385D+03 E-N=-2.227106054082D+03  KE=-8.520307300300D+01
  Exact polarizability: 244.259  -6.303 211.011   5.764  27.889 134.358
 Approx polarizability: 154.792   2.316 119.229  10.016   1.758  82.096
 D2PCM: C-PCM CHGder 2nd derivatives, FixD1E=F FixD2E=F DoIter=F DoCFld=F I1PDM=0
 CoulSu:  requested number of processors reduced to:   3 ShMem   1 Linda.
 Calling FoFJK, ICntrl=    100127 FMM=F ISym2X=0 I1Cent= 0 IOpClX= 0 NMat=1 NMatS=1 NMatT=0.
 Full mass-weighted force constant matrix:
 Low frequencies --- -717.0647   -2.9279   -0.9739   -0.0556    0.2193    0.6657
 Low frequencies ---    2.5232   11.0058   16.8432
 ******    1 imaginary frequencies (negative Signs) ****** 
 Diagonal vibrational polarizability:
      845.2449972     699.9487237    1006.7245213
 Harmonic frequencies (cm**-1), IR intensities (KM/Mole), Raman scattering
 activities (A**4/AMU), depolarization ratios for plane and unpolarized
 incident light, reduced masses (AMU), force constants (mDyne/A),
 and normal coordinates:
                      1                      2                      3
                      A                      A                      A
 Frequencies --   -717.0647                10.8455                16.7734
 Red. masses --      8.1848                 6.6055                 6.6240
 Frc consts  --      2.4796                 0.0005                 0.0011
 IR Inten    --   2641.0499                 0.8119                 3.0301
  Atom  AN      X      Y      Z        X      Y      Z        X      Y      Z
     1   6     0.03   0.11  -0.04     0.02  -0.02  -0.01    -0.05  -0.03   0.02
     2   6    -0.12  -0.01   0.12     0.04  -0.03  -0.01    -0.04  -0.04  -0.01
     3   6     0.06   0.17   0.50     0.03  -0.05   0.02    -0.03  -0.05  -0.04
     4   6    -0.02  -0.01   0.03     0.00  -0.04   0.04    -0.04  -0.05  -0.02
     5   1     0.11  -0.08  -0.09     0.06  -0.03  -0.03    -0.04  -0.04  -0.02
     6   1    -0.04  -0.23  -0.32     0.05  -0.06   0.03    -0.04  -0.07  -0.06
     7   6     0.01   0.01  -0.01    -0.03  -0.02   0.04    -0.07  -0.03   0.05
     8   1    -0.01  -0.01  -0.01    -0.03  -0.03   0.08    -0.06  -0.03   0.10
     9   1     0.00   0.04  -0.01    -0.01  -0.02   0.01    -0.05  -0.04   0.03
    10   1     0.00   0.01  -0.01    -0.07   0.00   0.03    -0.11   0.01   0.04
    11   7     0.03   0.01   0.00     0.00  -0.03   0.02    -0.05  -0.03   0.01
    12   8     0.02  -0.01   0.00    -0.01  -0.05   0.07    -0.04  -0.05  -0.04
    13   8     0.00   0.00   0.00     0.02  -0.01  -0.03    -0.06  -0.02   0.05
    14   6     0.08   0.03   0.02     0.02  -0.03  -0.03     0.02  -0.02  -0.03
    15   1    -0.03   0.04   0.07     0.03  -0.03  -0.04     0.02  -0.02  -0.04
    16   6    -0.08   0.06  -0.07     0.02  -0.03   0.00     0.02  -0.03  -0.05
    17   1     0.04   0.01   0.14     0.02  -0.03   0.01     0.02  -0.04  -0.07
    18   6    -0.02  -0.05  -0.04     0.02  -0.03  -0.05     0.01   0.00   0.00
    19   1     0.01  -0.03   0.04     0.01  -0.02  -0.03     0.00   0.00   0.01
    20   6     0.04  -0.01   0.00     0.03  -0.03  -0.09     0.01   0.01   0.02
    21   1     0.00  -0.03  -0.04     0.06  -0.02  -0.10    -0.02  -0.01   0.03
    22   1     0.01  -0.01  -0.06     0.02  -0.03  -0.08     0.02   0.01   0.00
    23   1    -0.01  -0.03  -0.05     0.01  -0.05  -0.12     0.01   0.03   0.04
    24   6    -0.02  -0.28  -0.47     0.01  -0.03   0.02     0.01  -0.03  -0.05
    25   1     0.00   0.09   0.19     0.01  -0.02   0.01     0.01  -0.02  -0.03
    26   6    -0.03  -0.01  -0.05     0.01  -0.02   0.03     0.01  -0.04  -0.08
    27   1    -0.21   0.05  -0.05    -0.01  -0.05   0.05     0.03  -0.06  -0.07
    28   1     0.04   0.00   0.03     0.02  -0.02   0.01     0.01  -0.04  -0.09
    29   6     0.01  -0.01  -0.01    -0.02   0.04   0.01    -0.01  -0.01  -0.10
    30   6     0.00   0.00   0.00    -0.04   0.01  -0.09    -0.03  -0.03  -0.16
    31   1    -0.01  -0.01   0.00     0.03  -0.05  -0.13    -0.04  -0.09  -0.15
    32   1    -0.01  -0.01   0.00    -0.10   0.02  -0.16    -0.02  -0.01  -0.16
    33   1    -0.02   0.00  -0.01    -0.07   0.03  -0.06    -0.04  -0.02  -0.20
    34   8     0.00   0.00   0.01     0.02   0.02   0.07     0.00  -0.03  -0.08
    35   8     0.00   0.00   0.00    -0.02   0.08   0.05     0.00   0.02  -0.06
    36   1     0.09   0.00   0.00     0.07  -0.01  -0.10    -0.07  -0.03   0.05
    37   1    -0.04   0.01  -0.02    -0.03  -0.08   0.15    -0.09  -0.10   0.12
    38   1     0.01  -0.02  -0.04     0.09   0.16   0.13     0.08   0.11   0.04
    39   1     0.00   0.00  -0.01    -0.20   0.04  -0.16     0.22   0.17   0.12
    40   8     0.00   0.00   0.01     0.14   0.24   0.18     0.14   0.22   0.10
    41   1    -0.03  -0.01  -0.01     0.19   0.26   0.22     0.21   0.25   0.16
    42   8     0.00   0.00   0.00    -0.28   0.01  -0.27     0.31   0.22   0.15
    43   1     0.00  -0.01  -0.01    -0.24   0.05  -0.21     0.22   0.24   0.07
    44   8     0.00   0.00   0.00    -0.06  -0.05   0.15    -0.10  -0.05   0.16
    45   1    -0.05   0.02  -0.03    -0.06  -0.03   0.13    -0.08   0.00   0.12
    46   8     0.00   0.00   0.01     0.11   0.00  -0.12    -0.06  -0.02   0.05
    47   1     0.03  -0.05   0.01     0.11   0.02  -0.14    -0.07  -0.02   0.06
                      4                      5                      6
                      A                      A                      A
 Frequencies --     17.7542                24.7934                28.5556
 Red. masses --      5.6481                 5.5160                 5.0187
 Frc consts  --      0.0010                 0.0020                 0.0024
 IR Inten    --      0.6317                 1.2677                 0.9645
  Atom  AN      X      Y      Z        X      Y      Z        X      Y      Z
     1   6    -0.02  -0.04   0.07    -0.01   0.00   0.05     0.02  -0.01  -0.02
     2   6    -0.01  -0.04   0.02     0.02  -0.02   0.03     0.03  -0.02  -0.03
     3   6    -0.01  -0.03   0.02     0.01  -0.04   0.04     0.02  -0.03  -0.02
     4   6    -0.02  -0.02   0.07    -0.02  -0.04   0.06     0.01  -0.03  -0.02
     5   1    -0.01  -0.07  -0.02     0.04  -0.02   0.01     0.04  -0.02  -0.03
     6   1    -0.01  -0.05   0.00     0.02  -0.06   0.03     0.03  -0.04  -0.01
     7   6    -0.02  -0.01   0.16    -0.07   0.00   0.10    -0.01  -0.02  -0.02
     8   1    -0.09  -0.04  -0.04    -0.11  -0.04   0.04    -0.02  -0.02  -0.02
     9   1    -0.17   0.04   0.33    -0.13   0.03   0.16    -0.01  -0.01  -0.03
    10   1     0.20  -0.01   0.22     0.00   0.01   0.12    -0.02  -0.01  -0.02
    11   7    -0.02  -0.02   0.11    -0.04  -0.01   0.07     0.01  -0.02  -0.02
    12   8    -0.01  -0.01   0.08    -0.03  -0.06   0.07     0.01  -0.04  -0.02
    13   8    -0.02  -0.04   0.09    -0.02   0.02   0.04     0.01   0.00  -0.01
    14   6     0.00   0.03  -0.08     0.04  -0.01   0.01     0.08   0.05  -0.07
    15   1     0.01   0.02  -0.12     0.05  -0.02  -0.01     0.14   0.05  -0.08
    16   6     0.00   0.03  -0.06     0.03  -0.02   0.02     0.06  -0.02  -0.04
    17   1     0.00   0.02  -0.08     0.04  -0.03   0.01     0.10  -0.05  -0.03
    18   6    -0.01   0.04  -0.05     0.03  -0.01   0.00     0.03   0.10  -0.06
    19   1    -0.02   0.06  -0.01     0.02   0.00   0.02    -0.03   0.09  -0.06
    20   6     0.00   0.04  -0.08     0.04  -0.01  -0.03     0.05   0.18  -0.07
    21   1     0.00  -0.02  -0.06     0.09   0.08  -0.07    -0.03   0.01   0.01
    22   1     0.01   0.04  -0.15     0.02  -0.01   0.05     0.15   0.20  -0.25
    23   1    -0.01   0.09  -0.05     0.02  -0.07  -0.10     0.03   0.36   0.05
    24   6    -0.01   0.04   0.00     0.02  -0.02   0.03     0.00  -0.03  -0.01
    25   1    -0.02   0.06   0.02     0.02  -0.01   0.04    -0.04  -0.01  -0.03
    26   6    -0.02   0.04   0.01     0.02  -0.03   0.03    -0.02  -0.08   0.04
    27   1    -0.02   0.06   0.00     0.02  -0.06   0.05    -0.06  -0.15   0.08
    28   1    -0.02   0.04   0.03     0.03  -0.03   0.00    -0.02  -0.08  -0.02
    29   6    -0.01   0.01   0.01    -0.03   0.03  -0.01     0.02   0.03   0.10
[...]
 .00023697,-0.00010590,-0.00012738,0.00013638,-0.00014801,0.00012797,-0
 .02992225,-0.04250893,0.05616772,-0.00007911,0.00000934,0.00000151,-0.
 00005645,0.00006953,0.00001874,0.00009063,0.00005160,-0.00003843,-0.00
 001404,-0.00001354,0.00000766,0.00002250,-0.00012534,0.00002238,0.0000
 0576,0.00003211,-0.00001632,0.05334689,-0.00186327,0.00135862,-0.00100
 467,-0.00026478,-0.00068907,0.00023830,0.00076920,0.00017188,0.0009895
 1,-0.00538450,0.00024545,-0.00172148,0.00000096,0.00005608,-0.00008128
 ,0.00015198,-0.00001992,-0.00014652,0.00106345,0.00024993,0.00022254,0
 .00054735,-0.00083397,0.00017228,-0.00006993,-0.00015379,-0.00008693,-
 0.00016484,-0.00009549,0.00011112,0.00264957,-0.00045022,0.00085242,0.
 00549825,-0.01103200,0.00258620,0.00106560,0.00004290,0.00034540,0.000
 74294,0.00003503,0.00000093,-0.00001827,0.00008756,0.00000028,-0.00071
 190,0.00069703,-0.00016344,0.00007490,0.00009712,0.00002751,-0.0005183
 6,-0.00014240,-0.00000231,-0.00000636,-0.00003465,0.00004593,0.0003262
 6,-0.00006277,0.00007807,-0.00006089,-0.00000536,-0.00006874,-0.000033
 86,0.00004541,-0.00001662,-0.00005413,-0.00002458,0.00001396,0.0001655
 2,-0.00109070,-0.00066428,-0.00002832,0.00009911,0.00019376,0.00009404
 ,0.00003664,-0.00004048,0.00001027,0.00000858,0.00006085,0.00001637,0.
 00014814,0.00009666,0.00031846,0.00031804,-0.00032895,-0.00042039,-0.0
 0031266,0.00004674,0.00010583,0.00002537,0.00004518,0.00011950,-0.0000
 0011,-0.00005459,0.00040414,0.00033139,-0.00001979,-0.00024011,-0.0000
 8551,0.00010366,-0.00015846,-0.00019789,0.00023633,-0.00015026,0.00010
 617,-0.00012434,-0.02341402,-0.07470295,0.04734655,0.00001096,0.000079
 52,-0.00003206,0.00008296,-0.00001675,-0.00005731,-0.00002246,-0.00013
 553,0.00007332,0.00000345,0.00004422,-0.00002644,-0.00011294,0.0000264
 0,0.00007370,0.00003669,-0.00000522,-0.00002569,-0.00319134,0.17831783
 ,0.00016087,-0.00063726,-0.00011154,0.00035322,0.00035007,0.00023909,-
 0.00016068,-0.00025417,-0.00074632,-0.00029420,-0.00040585,-0.00064130
 ,0.00001087,0.00001122,-0.00004066,0.00001142,0.00003317,0.00001409,-0
 .00102636,0.00077542,0.00072362,0.00132954,-0.00064557,-0.00074084,0.0
 0014923,-0.00002248,-0.00002907,-0.00013646,0.00010203,-0.00029042,-0.
 00038640,0.00025463,0.00057460,-0.00050208,-0.00040936,0.00464777,-0.0
 0006952,0.00010916,0.00006699,-0.00018461,-0.00004949,0.00004242,0.000
 00233,-0.00000821,-0.00001683,0.00021219,-0.00021821,0.00006722,-0.000
 00691,-0.00001952,-0.00002089,0.00010687,0.00004660,-0.00002261,-0.000
 00768,0.00003423,-0.00002871,-0.00004169,-0.00000563,0.00004941,0.0000
 0373,-0.00000086,-0.00002183,0.00000438,-0.00000522,-0.00001139,0.0000
 0613,0.00000896,-0.00001810,-0.00011893,0.00031256,0.00044179,0.000016
 85,0.00007386,-0.00011057,0.00010232,0.00004900,-0.00011160,-0.0000035
 8,0.00001292,-0.00002442,-0.00000369,0.00013807,-0.00006233,0.00025011
 ,-0.00009323,-0.00041489,0.00001724,0.00010886,0.00044223,-0.00000113,
 0.00003308,-0.00013098,-0.00001648,-0.00005887,-0.00012246,-0.00003812
 ,-0.00008895,-0.00025320,-0.00019650,0.00000026,0.00025227,-0.00008813
 ,-0.00001197,0.00020720,0.00003116,-0.00002842,-0.00002053,0.05797783,
 0.08948931,-0.12360082,-0.00001158,-0.00001671,-0.00003536,-0.00000507
 ,-0.00005586,-0.00006624,0.00000864,0.00003398,0.00005407,-0.00000211,
 -0.00001573,-0.00002200,0.00006919,0.00009163,0.00009983,-0.00003437,-
 0.00002848,-0.00002725,-0.10288920,0.00594959,0.22988145,-0.00091200,0
 .00111487,-0.00074563,-0.00043118,-0.00062706,0.00015276,0.00025974,0.
 00003206,0.00048888,-0.00088707,0.00238379,-0.00108345,-0.00001720,0.0
 0001773,-0.00004156,0.00013574,-0.00003751,-0.00008764,0.00092314,0.00
 041592,0.00038780,-0.00082988,-0.00033368,-0.00093277,-0.00016615,-0.0
 0018554,-0.00012168,-0.00062515,0.00000390,0.00014863,0.00031588,-0.00
 072953,0.00052048,-0.00049879,-0.00294471,0.00154530,0.00050275,-0.000
 14597,0.00022449,0.00028130,-0.00000835,0.00001316,-0.00000835,0.00005
 018,-0.00000363,-0.00033484,0.00034378,-0.00011110,0.00006584,0.000062
 19,0.00000919,-0.00021397,-0.00002982,0.00001560,-0.00000212,0.0000034
 7,0.00001421,0.00013308,-0.00006120,0.00003917,-0.00002373,0.00001037,
 -0.00003274,-0.00001435,0.00002738,-0.00000903,-0.00002234,0.00000045,
 0.00000531,0.00001735,-0.00067512,-0.00040715,0.00000228,0.00009317,0.
 00009547,0.00013184,0.00009865,-0.00007056,0.00000271,-0.00001272,0.00
 002566,0.00006914,-0.00001598,0.00002607,0.00041657,-0.00031914,-0.000
 15355,-0.00009710,0.00034669,-0.00002617,0.00000906,-0.00007229,0.0000
 1100,-0.00000248,-0.00006840,0.00000607,0.00006314,-0.00018366,0.00001
 029,-0.00034749,0.00008217,0.00017235,-0.00013207,0.00007338,0.0000550
 3,-0.00008359,0.00008557,-0.00008067,-0.00699525,0.01123980,0.02041412
 ,0.00004803,-0.00000500,-0.00000042,0.00002605,-0.00003325,-0.00000410
 ,-0.00005442,-0.00003362,0.00002410,0.00000755,0.00000892,-0.00000470,
 -0.00000697,0.00005657,-0.00002096,-0.00000331,-0.00001309,0.00001000,
 -0.02305458,0.02253290,0.04542196,0.03230507,0.00164965,-0.00118404,0.
 00096277,0.00022343,0.00055578,-0.00028999,-0.00090139,-0.00006506,-0.
 00051204,0.00810920,-0.00187645,0.00263356,-0.00001204,-0.00005768,0.0
 0007638,-0.00015926,-0.00000961,0.00015182,0.00015774,-0.00032631,-0.0
 0014045,-0.00102137,0.00072985,-0.00024344,-0.00000884,0.00005232,0.00
 002824,0.00006084,0.00005940,-0.00002440,-0.00292778,0.00001715,-0.001
 16009,-0.00423310,-0.00161950,-0.00232240,-0.00096405,-0.00007184,-0.0
 0031182,-0.00071514,-0.00003241,-0.00001288,0.00001596,-0.00008335,0.0
 0000228,0.00068300,-0.00066943,0.00015931,-0.00007898,-0.00009378,-0.0
 0002724,0.00049348,0.00014266,0.00000855,0.00000742,0.00003230,-0.0000
 4220,-0.00030682,0.00005736,-0.00008386,0.00005530,0.00000744,0.000070
 33,0.00003044,-0.00004230,0.00001802,0.00004964,0.00002416,-0.00001079
 ,-0.00014351,0.00112439,0.00061654,0.00003056,-0.00011746,-0.00018496,
 -0.00014013,-0.00005017,0.00009389,-0.00001206,-0.00000145,-0.00006153
 ,-0.00002926,-0.00013404,-0.00007533,-0.00046070,-0.00011717,0.0004157
 6,0.00040400,0.00012136,-0.00014384,-0.00009198,0.00000594,-0.00001376
 ,-0.00008126,0.00004328,0.00006326,-0.00030494,-0.00009379,0.00008834,
 0.00035842,0.00005523,-0.00020065,0.00018834,0.00013451,-0.00025240,0.
 00012488,-0.00008829,0.00011320,-0.00915296,0.00430105,0.01927518,-0.0
 0002050,-0.00005578,0.00003255,-0.00006469,0.00003414,0.00005360,0.000
 03146,0.00010664,-0.00007515,-0.00000368,-0.00003201,0.00002502,0.0000
 6396,-0.00005168,-0.00005884,-0.00001638,0.00001152,0.00001726,0.04169
 180,-0.09248004,-0.09495959,-0.03249721,0.09169171,-0.00085571,0.00106
 488,-0.00042874,-0.00041440,-0.00058597,-0.00002207,0.00050132,0.00015
 445,0.00091402,-0.00248515,0.00159725,-0.00049481,-0.00000363,0.000012
 41,-0.00000956,0.00008597,-0.00003756,-0.00008324,0.00062629,-0.000154
 93,-0.00019397,-0.00184633,0.00007369,-0.00039012,-0.00014098,-0.00005
 649,-0.00004202,-0.00010568,-0.00004488,0.00025539,0.00122127,-0.00045
 964,0.00001660,0.00082279,0.00348413,-0.00307080,0.00047082,-0.0000923
 9,0.00011613,0.00037125,0.00004816,-0.00002720,-0.00000647,0.00003505,
 0.00001034,-0.00039892,0.00041154,-0.00011422,0.00003701,0.00005080,0.
 00002526,-0.00024160,-0.00007835,0.00001808,0.00000439,-0.00003625,0.0
 0003693,0.00012589,-0.00001808,-0.00000552,-0.00001958,-0.00000005,-0.
 00000944,-0.00001177,0.00001828,0.00000112,-0.00001864,-0.00001357,0.0
 0001584,0.00013724,-0.00064155,-0.00060415,-0.00002004,-0.00002625,0.0
 0016457,-0.00002792,-0.00000468,0.00006266,-0.00000029,-0.00001556,0.0
 0003225,0.00001477,-0.00007356,0.00007570,-0.00003210,0.00005802,0.000
 14488,-0.00010408,-0.00011214,-0.00023620,0.00001024,-0.00001649,0.000
 08789,0.00002299,0.00002340,0.00004577,0.00014674,0.00014420,0.0001272
 4,0.00001458,0.00000964,-0.00012088,0.00000713,-0.00000920,-0.00006245
 ,-0.00006941,0.00006101,-0.00003804,0.01993901,-0.02576823,-0.04218416
 ,0.00002255,0.00001729,0.00001380,0.00001085,0.00001869,0.00002276,-0.
 00002433,-0.00004492,-0.00000959,0.00000231,0.00001399,0.00000680,-0.0
 0003576,-0.00003185,-0.00003720,0.00001520,0.00001017,0.00001073,0.048
 16493,-0.05533519,-0.11008509,-0.06595270,0.07638608,0.15604591,0.0070
 4919,0.00066223,0.00151910,-0.00401163,-0.00074111,-0.00105294,0.00145
 704,0.00127225,0.00235151,0.00119055,-0.00028689,0.00030127,0.00101370
 ,-0.00015819,0.00025289,0.00014115,-0.00002827,-0.00036082,-0.00024839
 ,0.00008888,-0.00005706,0.00008478,-0.00002276,-0.00002890,-0.00007278
 ,-0.00011161,-0.00002472,-0.00003223,-0.00001231,0.00008142,-0.0018370
 7,0.00092607,-0.00071209,-0.00088526,0.00044946,-0.00030343,-0.0071191
 5,0.00431428,-0.00464675,0.00021954,-0.00021485,-0.00008915,-0.0000654
 6,0.00025702,0.00002408,-0.00070849,0.00083374,-0.00035404,0.00020243,
 0.00024919,0.00003356,0.00011037,0.00019988,0.00054218,0.00002654,-0.0
 0010910,0.00016380,0.00074752,-0.00122663,-0.00286358,-0.00098276,0.00
 110519,0.00220895,-0.00028207,0.00025481,0.00000369,-0.00038917,-0.000
 07127,0.00013108,0.00021457,-0.00197133,-0.00175565,-0.00008694,0.0000
 1413,0.00033716,0.00021169,0.00014943,-0.00003312,-0.00000503,0.000001
 89,0.00008911,0.00001442,-0.00003402,0.00004607,0.00060435,-0.00002020
 ,-0.00037766,-0.00027151,0.00001744,0.00000972,0.00006136,-0.00000774,
 0.00003411,0.00006457,-0.00001143,-0.00002145,0.00012794,0.00000889,0.
 00000495,-0.00050368,0.00001964,0.00019401,-0.00024998,-0.00012721,0.0
 0022447,-0.05179252,0.08150112,-0.02764974,0.00007681,-0.00009289,-0.0
 0000139,0.00008010,0.00008885,-0.00002042,0.00008499,-0.00002000,-0.00
 004177,-0.00011381,-0.00024185,0.00008228,0.00001574,0.00008855,-0.000
 02097,-0.00010657,0.00001720,0.00004366,0.00003866,0.00000231,-0.00001
 874,-0.00011566,0.00015181,-0.00003671,0.00007322,-0.00012517,0.000064
 26,0.19684099,-0.00713170,-0.00304970,-0.00104620,0.00294451,0.0019972
 7,0.00049760,-0.00151692,-0.00104187,-0.00250209,-0.00107758,-0.000364
 28,-0.00012020,0.00003975,-0.00032196,0.00005539,-0.00005778,0.0000993
 3,0.00032390,0.00025350,-0.00006628,0.00006570,-0.00006807,0.00001071,
 0.00000084,-0.00003715,0.00007503,-0.00002517,-0.00001563,0.00002294,-
 0.00004874,0.00171346,-0.00013312,0.00047100,0.00058721,-0.00006193,0.
 00014591,0.00894992,-0.00299619,0.00487745,-0.00229857,-0.00033580,-0.
 00018567,0.00007948,-0.00008696,0.00004973,0.00193495,-0.00169533,0.00
 064989,-0.00009607,-0.00013671,-0.00005792,0.00242556,0.00009645,0.000
 22109,-0.00006392,0.00000574,-0.00005293,-0.00230053,-0.00029155,-0.00
 468529,0.00106584,-0.00020941,0.00162370,0.00006751,0.00015941,0.00040
 088,-0.00003857,-0.00012976,0.00030643,-0.00040468,0.00267277,0.001796
 54,-0.00000908,-0.00013670,-0.00028838,-0.00000130,-0.00008863,-0.0001
 3618,-0.00002394,-0.00000295,-0.00001596,0.00000774,-0.00002043,-0.000
 01625,-0.00015378,-0.00010681,0.00015386,0.00009695,0.00006719,-0.0000
 1164,-0.00002175,-0.00000696,-0.00000757,-0.00002158,-0.00000632,0.000
 00603,-0.00007083,-0.00003340,-0.00000197,0.00014028,0.00003544,-0.000
 05814,0.00005218,0.00010060,-0.00009950,0.03947172,-0.13961299,0.02163
 474,-0.00005702,0.00002980,0.00000016,0.00001083,-0.00006993,0.0000439
 6,-0.00001611,-0.00000738,0.00001133,-0.00004605,0.00013241,-0.0001081
 7,0.00003450,-0.00003543,0.00002886,0.00002513,0.00001390,-0.00001257,
 -0.00000920,-0.00000653,0.00000574,0.00009926,-0.00005168,0.00002758,-
 0.00005491,0.00003998,-0.00003663,-0.03578834,0.18014567,0.00379050,-0
 .00098079,0.00045026,-0.00049914,0.00027539,0.00069797,-0.00054584,-0.
 00016669,-0.00084526,0.00124915,-0.00025738,0.00026475,0.00027270,0.00
 022968,-0.00052088,0.00012903,0.00016320,-0.00005278,-0.00020064,0.000
 06870,-0.00000314,0.00007200,-0.00003528,-0.00005668,-0.00002798,-0.00
 009664,-0.00007453,0.00000488,-0.00000681,0.00003737,-0.00155525,0.000
 63566,-0.00044365,-0.00086517,0.00045823,-0.00025066,-0.00474989,0.002
 90234,-0.00131312,-0.00333075,-0.00098797,-0.00003805,-0.00000313,0.00
 027573,-0.00010405,0.00199565,-0.00139777,0.00043014,0.00013858,0.0001
 5296,-0.00009090,0.00405487,0.00069817,0.00074806,-0.00003868,0.000045
 46,0.00007706,-0.00375944,-0.00330847,-0.00863983,0.00130578,0.0004942
 6,0.00021514,-0.00004951,0.00070907,0.00038890,-0.00023334,0.00014893,
 0.00092960,-0.00044441,0.00132703,0.00057011,-0.00005546,-0.00011675,-
 0.00002350,0.00037297,0.00009884,-0.00033355,-0.00004849,0.00000140,0.
 00008236,0.00003695,-0.00003779,0.00003820,0.00060759,-0.00000950,-0.0
 0051426,-0.00022484,-0.00000176,0.00008908,0.00005032,-0.00000438,0.00
 001008,0.00004782,-0.00000965,-0.00003856,0.00011295,0.00001211,-0.000
 02321,-0.00053096,0.00001758,0.00033086,-0.00022325,-0.00015921,0.0003
 1904,-0.02926952,0.04753096,-0.01908259,0.00007005,-0.00006831,-0.0000
 4406,0.00001505,0.00007666,-0.00008177,0.00005330,-0.00001995,-0.00005
 978,-0.00002741,-0.00014939,0.00021087,-0.00001723,0.00004206,-0.00007
 810,-0.00005232,0.00001502,0.00007182,0.00001413,0.00000075,-0.0000285
 6,-0.00011821,0.00012451,0.00004041,0.00007685,-0.00011732,0.00002164,
 0.11350445,-0.01753050,0.07603345,-0.00245493,-0.00003974,-0.00066364,
 0.00107409,0.00033869,0.00026722,-0.00041260,-0.00035691,-0.00068974,-
 0.00044882,0.00008715,-0.00012601,-0.00017230,-0.00000912,-0.00004352,
 -0.00004453,0.00000634,0.00010565,0.00007541,-0.00002256,0.00001908,-0
 .00002779,0.00000957,0.00000629,0.00002373,0.00003614,0.00000345,0.000
 01039,0.00000615,-0.00002724,0.00066130,-0.00030645,0.00027510,0.00031
 210,-0.00015963,0.00011172,0.00192986,-0.00082836,0.00109679,0.0000676
 0,0.00009340,0.00002937,0.00001715,-0.00008189,-0.00000587,0.00014125,
 -0.00019890,0.00008841,-0.00006498,-0.00007902,-0.00000715,-0.00024477
 ,-0.00006663,-0.00017133,-0.00000201,0.00003131,-0.00004709,0.00010079
 ,0.00044651,0.00111198,-0.00024773,-0.00115208,-0.00203238,0.00007708,
 -0.00011893,-0.00005332,0.00012683,-0.00000024,-0.00013390,-0.00004692
 ,0.00054100,0.00050862,0.00002880,0.00000175,-0.00010125,-0.00007970,-
 0.00004779,0.00002339,0.00000288,-0.00000073,-0.00003223,-0.00000664,0
 .00001213,-0.00001663,-0.00020932,0.00001132,0.00012296,0.00009753,-0.
 00000680,0.00000088,-0.00002242,0.00000297,-0.00001299,-0.00002392,0.0
 0000424,0.00000654,-0.00004547,-0.00000334,-0.00000315,0.00017324,-0.0
 0000836,-0.00006599,0.00008951,0.00004114,-0.00007289,-0.03142704,-0.0
 0559917,-0.01852616,-0.00002750,0.00003385,-0.00000232,-0.00003003,-0.
 00002846,0.00000262,-0.00003237,0.00000729,0.00001359,0.00004515,0.000
 07972,-0.00001743,-0.00000950,-0.00003094,0.00000338,0.00004197,-0.000
 00649,-0.00001371,-0.00001568,-0.00000080,0.00000607,0.00004080,-0.000
 05510,0.00001662,-0.00002599,0.00004466,-0.00002360,-0.14087113,-0.008
 62023,-0.08110466,0.17185555,-0.00055904,-0.00010937,-0.00004211,0.000
 04844,-0.00002151,0.00001537,-0.00001700,-0.00002298,-0.00002350,-0.00
 000988,-0.00000813,0.00001002,0.00001704,0.00000559,-0.00000558,0.0000
 0065,0.00000414,0.00000349,0.00000019,-0.00000718,-0.00001164,0.000001
 79,-0.00000313,0.00000968,0.00002533,0.00000984,0.00001732,0.00000938,
 -0.00000281,-0.00000013,0.00014127,-0.00007664,0.00002063,0.00002810,-
 0.00001375,0.00000759,0.00099833,-0.00078862,0.00062048,-0.00008994,-0
 .00005578,0.00001391,-0.00001064,0.00002431,-0.00001503,0.00005264,-0.
 00003197,0.00001523,0.00000314,0.00000568,-0.00000536,0.00016382,0.000
 02135,0.00002285,0.00000186,0.00000806,0.00000294,-0.00004207,-0.00014
 788,-0.00028408,-0.00021916,0.00015120,0.00057732,-0.00003043,0.000055
 82,-0.00001418,-0.00002570,0.00002142,0.00001073,-0.00000915,0.0000305
 0,0.00002700,0.00000073,0.00000140,-0.00000549,0.00000910,-0.00000078,
 -0.00000724,-0.00000110,0.00000157,0.00000112,0.00000029,0.00000250,0.
 00000014,-0.00000179,0.00001702,-0.00000396,-0.00000152,-0.00001277,-0
 .00000106,0.00000072,0.00000196,-0.00000032,0.00000066,0.00000243,0.00
 000124,0.00000205,0.00000430,0.00000127,-0.00000128,-0.00000736,0.0000
 0433,0.00000165,-0.00001265,0.00000481,0.03477145,-0.00374030,0.020038
 82,0.00000458,0.00000405,0.00000378,-0.00000709,0.00001179,-0.00000521
 ,-0.00000033,0.00000332,0.00000080,0.00001443,-0.00001912,0.00001165,-
 0.00000633,0.00000618,-0.00000387,-0.00000135,-0.00000498,-0.00000111,
 0.00000077,0.00000181,0.00000015,-0.00001038,-0.00000597,-0.00000686,0
 .00000402,0.00000589,0.00000173,-0.05125173,-0.03459810,-0.03104292,0.
 01599392,0.03928877,-0.00163114,0.00001695,-0.00024241,0.00058895,0.00
 018516,-0.00003617,-0.00015538,-0.00014326,-0.00025489,-0.00037168,0.0
 0003505,-0.00004865,-0.00010658,-0.00003243,0.00006336,-0.00003347,-0.
 00001063,0.00006376,0.00006646,-0.00002481,-0.00000309,-0.00002198,0.0
 0001119,0.00001592,0.00000018,0.00002906,0.00002186,-0.00000770,0.0000
 0421,-0.00000676,0.00050282,-0.00017142,0.00011412,0.00023610,-0.00010
 478,0.00005625,0.00143077,-0.00052099,0.00040929,0.00011887,0.00006690
 ,0.00000484,-0.00000112,-0.00003958,0.00000761,0.00000188,-0.00004500,
 0.00004468,-0.00003897,-0.00004440,0.00000340,-0.00002813,-0.00012620,
 -0.00009600,-0.00000022,-0.00001276,-0.00000771,0.00003189,0.00003580,
 -0.00036413,-0.00032479,0.00004119,0.00048220,-0.00002530,-0.00004088,
 -0.00005499,-0.00004548,-0.00007085,-0.00008258,0.00002036,0.00020506,
 0.00018720,0.00000210,-0.00000247,-0.00003713,-0.00006901,-0.00003927,
 0.00003808,0.00000339,0.00000123,-0.00001571,-0.00000593,0.00000583,-0
 .00000763,-0.00015941,-0.00000116,0.00013727,0.00006179,0.00000127,-0.
 00002595,-0.00001376,0.00000097,-0.00000182,-0.00001385,0.00000264,0.0
 0001138,-0.00003112,-0.00000425,0.00000654,0.00013664,-0.00000505,-0.0
 0008112,0.00006099,0.00004144,-0.00008520,-0.01857328,-0.00295354,-0.0
 1042045,-0.00002078,0.00001825,0.00001411,-0.00000815,-0.00001797,0.00
 002044,-0.00001575,0.00000623,0.00001792,0.00001462,0.00004063,-0.0000
 5563,0.00000201,-0.00001286,0.00002262,0.00001579,-0.00000509,-0.00002
 276,-0.00000431,0.00000012,0.00000936,0.00003710,-0.00003440,-0.000015
 59,-0.00002378,0.00003139,-0.00000307,-0.08177537,-0.00635193,-0.04931
 709,0.10017369,0.01003581,0.05953425\\-0.00000358,0.00000191,-0.000002
 86,0.00000501,0.00000020,-0.00000142,-0.00000292,-0.00000020,-0.000002
 60,-0.00000119,0.00000162,0.00000196,0.00000150,0.00000200,-0.00000014
 ,0.00000114,0.00000056,0.00000201,-0.00000104,-0.00000015,-0.00000390,
 -0.00000158,0.00000077,-0.00000383,-0.00000154,0.00000190,-0.00000523,
 -0.00000313,0.,-0.00000468,-0.00000088,0.00000092,-0.00000236,-0.00000
 265,-0.00000071,-0.00000391,0.00000321,0.00000420,-0.00000399,-0.00000
 172,0.00000004,0.00000002,0.00000112,0.00000047,0.00000106,0.00000143,
 -0.00000213,0.00000077,-0.00000016,-0.00000124,0.00000185,0.00000117,0
 .00000098,0.00000030,-0.00000117,0.00000008,-0.00000409,-0.00000136,0.
 00000183,-0.00000350,0.00000204,0.00000147,-0.00000183,0.00000077,0.00
 000194,-0.00000203,-0.00000065,0.00000148,-0.00000326,-0.00000097,-0.0
 0000011,0.00000193,-0.00000167,-0.00000099,-0.00000124,-0.00000178,-0.
 00000200,0.00000363,-0.00000196,-0.00000327,0.00000257,-0.00000222,-0.
 00000242,0.00000111,-0.00000121,0.00000005,0.00000084,0.00000095,-0.00
 000285,0.00000218,-0.00000174,-0.00000331,0.00000374,-0.00000024,-0.00
 000264,0.00000439,-0.00000061,-0.00000197,0.00000239,-0.00000078,-0.00
 000255,0.00000624,0.00000338,-0.00000208,0.00000358,0.00000109,0.00000
 394,-0.00000478,-0.00000084,-0.00000047,0.00000001,0.00000363,0.000000
 20,0.00000575,0.00000161,-0.00000111,0.00000630,0.00000147,0.00000068,
 0.00000175,0.00000334,0.00000065,0.00000468,0.00000241,-0.00000125,0.0
 0000499,0.00000271,-0.00000086,0.00000638,-0.00000301,-0.00000300,-0.0
 0000296,-0.00000284,-0.00000093,-0.00000259,0.00000267,0.00000347,-0.0
 0000397,0.00000281,0.00000487,-0.00000528\\\@


 When cryptography is outlawed, bayl bhgynjf jvyy unir cevinpl.
 Job cpu time:       0 days  0 hours  1 minutes 31.2 seconds.
 File lengths (MBytes):  RWF=    343 Int=      0 D2E=      0 Chk=     26 Scr=      1
 Normal termination of Gaussian 09 at Thu Aug 27 18:57:15 2020.
