 Entering Gaussian System, Link 0=g09
 Input=PM6_2H2O_dienophile_pm6_cpcmtoluene_1.com
 Output=PM6_2H2O_dienophile_pm6_cpcmtoluene_1.log
 Initial command:
 /apps/applications/gaussian/G09.D01/2/default/g09/l1.exe "/local/688575.1.40core-192G.q/Gau-364179.inp" -scrdir="/local/688575.1.40core-192G.q/"
 Entering Link 1 = /apps/applications/gaussian/G09.D01/2/default/g09/l1.exe PID=    364180.
  
 Copyright (c) 1988,1990,1992,1993,1995,1998,2003,2009,2013,
            Gaussian, Inc.  All Rights Reserved.
  
 This is part of the Gaussian(R) 09 program.  It is based on
 the Gaussian(R) 03 system (copyright 2003, Gaussian, Inc.),
 the Gaussian(R) 98 system (copyright 1998, Gaussian, Inc.),
 the Gaussian(R) 94 system (copyright 1995, Gaussian, Inc.),
 the Gaussian 92(TM) system (copyright 1992, Gaussian, Inc.),
 the Gaussian 90(TM) system (copyright 1990, Gaussian, Inc.),
 the Gaussian 88(TM) system (copyright 1988, Gaussian, Inc.),
 the Gaussian 86(TM) system (copyright 1986, Carnegie Mellon
 University), and the Gaussian 82(TM) system (copyright 1983,
 Carnegie Mellon University). Gaussian is a federally registered
 trademark of Gaussian, Inc.
  
 This software contains proprietary and confidential information,
 including trade secrets, belonging to Gaussian, Inc.
  
 This software is provided under written license and may be
 used, copied, transmitted, or stored only in accord with that
 written license.
  
 The following legend is applicable only to US Government
 contracts under FAR:
  
                    RESTRICTED RIGHTS LEGEND
  
 Use, reproduction and disclosure by the US Government is
 subject to restrictions as set forth in subparagraphs (a)
 and (c) of the Commercial Computer Software - Restricted
 Rights clause in FAR 52.227-19.
  
 Gaussian, Inc.
 340 Quinnipiac St., Bldg. 40, Wallingford CT 06492
  
  
 ---------------------------------------------------------------
 Warning -- This program may not be used in any manner that
 competes with the business of Gaussian, Inc. or will provide
 assistance to any competitor of Gaussian, Inc.  The licensee
 of this program is prohibited from giving any competitor of
 Gaussian, Inc. access to this program.  By using this program,
 the user acknowledges that Gaussian, Inc. is engaged in the
 business of creating and licensing software in the field of
 computational chemistry and represents and warrants to the
 licensee that it is not a competitor of Gaussian, Inc. and that
 it will not use this program in any manner prohibited above.
 ---------------------------------------------------------------
  

 Cite this work as:
 Gaussian 09, Revision D.01,
 M. J. Frisch, G. W. Trucks, H. B. Schlegel, G. E. Scuseria, 
 M. A. Robb, J. R. Cheeseman, G. Scalmani, V. Barone, B. Mennucci, 
 G. A. Petersson, H. Nakatsuji, M. Caricato, X. Li, H. P. Hratchian, 
 A. F. Izmaylov, J. Bloino, G. Zheng, J. L. Sonnenberg, M. Hada, 
 M. Ehara, K. Toyota, R. Fukuda, J. Hasegawa, M. Ishida, T. Nakajima, 
 Y. Honda, O. Kitao, H. Nakai, T. Vreven, J. A. Montgomery, Jr., 
 J. E. Peralta, F. Ogliaro, M. Bearpark, J. J. Heyd, E. Brothers, 
 K. N. Kudin, V. N. Staroverov, T. Keith, R. Kobayashi, J. Normand, 
 K. Raghavachari, A. Rendell, J. C. Burant, S. S. Iyengar, J. Tomasi, 
 M. Cossi, N. Rega, J. M. Millam, M. Klene, J. E. Knox, J. B. Cross, 
 V. Bakken, C. Adamo, J. Jaramillo, R. Gomperts, R. E. Stratmann, 
 O. Yazyev, A. J. Austin, R. Cammi, C. Pomelli, J. W. Ochterski, 
 R. L. Martin, K. Morokuma, V. G. Zakrzewski, G. A. Voth, 
 P. Salvador, J. J. Dannenberg, S. Dapprich, A. D. Daniels, 
 O. Farkas, J. B. Foresman, J. V. Ortiz, J. Cioslowski, 
 and D. J. Fox, Gaussian, Inc., Wallingford CT, 2013.
 
 ******************************************
 Gaussian 09:  ES64L-G09RevD.01 24-Apr-2013
                 5-Aug-2020 
 ******************************************
 %nprocshared=4
 Will use up to    4 processors via shared memory.
 %chk=PM6_2H2O_dienophile_pm6_cpcmtoluene_1.chk
 ----------------------------------------------------------------------
 # opt freq pm6 scrf=(cpcm,solvent=toluene) geom=connectivity empirical
 dispersion=gd3
 ----------------------------------------------------------------------
 1/14=-1,18=20,19=15,26=1,38=1,57=2/1,3;
 2/9=110,12=2,17=6,18=5,40=1/2;
 3/5=2,16=1,25=1,41=3900000,70=2101,71=1,72=13,124=31/1,2,3;
 4/35=1/1;
 5/5=2,35=1,38=5,53=13/2;
 6/7=2,8=2,9=2,10=2,28=1/1;
 7//1,2,3,16;
 1/14=-1,18=20,19=15,26=1/3(2);
 2/9=110/2;
 99//99;
 2/9=110/2;
 3/5=2,16=1,25=1,41=3900000,70=2105,71=1,72=13,124=31,135=20/1,2,3;
 4/5=5,16=3,35=1/1;
 5/5=2,35=1,38=5,53=13/2;
 7//1,2,3,16;
 1/14=-1,18=20,19=15,26=1/3(-5);
 2/9=110/2;
 6/7=2,8=2,9=2,10=2,19=2,28=1/1;
 99/9=1/99;
 -------------------
 Title Card Required
 -------------------
 Symbolic Z-matrix:
 Charge =  0 Multiplicity = 1
 C                    -1.18244  -0.21491  -0.00089 
 C                    -0.66877  -1.64302   0.00387 
 C                     0.66866  -1.64305   0.00386 
 C                     1.1824   -0.21498  -0.00089 
 H                    -1.36251  -2.47189   0.00632 
 H                     1.36235  -2.47196   0.00631 
 C                     0.00005   2.07289   0.00709 
 H                     0.9527    2.46054  -0.39667 
 H                    -0.8275    2.46261  -0.61269 
 H                    -0.12434   2.45613   1.03582 
 N                     0.00001   0.59961  -0.0067 
 O                     2.31119   0.20154  -0.00441 
 O                    -2.3112    0.20167  -0.00439 
 O                     5.14582   0.61008   0.57162 
 H                     5.3369    1.54707   0.48718 
 H                     4.19548   0.47866   0.60604 
 O                    -5.26971   0.13993   0.04174 
 H                    -4.30971   0.13993   0.04174 
 H                    -5.59017   1.04486   0.04174 
 
 Add virtual bond connecting atoms H18        and O13        Dist= 3.78D+00.
 Add virtual bond connecting atoms H16        and O12        Dist= 3.78D+00.

 GradGradGradGradGradGradGradGradGradGradGradGradGradGradGradGradGradGrad
 Berny optimization.
 Initialization pass.
                           ----------------------------
                           !    Initial Parameters    !
                           ! (Angstroms and Degrees)  !
 --------------------------                            --------------------------
 ! Name  Definition              Value          Derivative Info.                !
 --------------------------------------------------------------------------------
 ! R1    R(1,2)                  1.5177         estimate D2E/DX2                !
 ! R2    R(1,11)                 1.4358         estimate D2E/DX2                !
 ! R3    R(1,13)                 1.2032         estimate D2E/DX2                !
 ! R4    R(2,3)                  1.3374         estimate D2E/DX2                !
 ! R5    R(2,5)                  1.0809         estimate D2E/DX2                !
 ! R6    R(3,4)                  1.5177         estimate D2E/DX2                !
 ! R7    R(3,6)                  1.0809         estimate D2E/DX2                !
 ! R8    R(4,11)                 1.4358         estimate D2E/DX2                !
 ! R9    R(4,12)                 1.2032         estimate D2E/DX2                !
 ! R10   R(7,8)                  1.1049         estimate D2E/DX2                !
 ! R11   R(7,9)                  1.1049         estimate D2E/DX2                !
 ! R12   R(7,10)                 1.1048         estimate D2E/DX2                !
 ! R13   R(7,11)                 1.4733         estimate D2E/DX2                !
 ! R14   R(12,16)                2.0            estimate D2E/DX2                !
 ! R15   R(13,18)                2.0            estimate D2E/DX2                !
 ! R16   R(14,15)                0.96           estimate D2E/DX2                !
 ! R17   R(14,16)                0.96           estimate D2E/DX2                !
 ! R18   R(17,18)                0.96           estimate D2E/DX2                !
 ! R19   R(17,19)                0.96           estimate D2E/DX2                !
 ! A1    A(2,1,11)             104.7785         estimate D2E/DX2                !
 ! A2    A(2,1,13)             130.0401         estimate D2E/DX2                !
 ! A3    A(11,1,13)            125.1808         estimate D2E/DX2                !
 ! A4    A(1,2,3)              109.7843         estimate D2E/DX2                !
 ! A5    A(1,2,5)              120.2892         estimate D2E/DX2                !
 ! A6    A(3,2,5)              129.9265         estimate D2E/DX2                !
 ! A7    A(2,3,4)              109.7842         estimate D2E/DX2                !
 ! A8    A(2,3,6)              129.9265         estimate D2E/DX2                !
 ! A9    A(4,3,6)              120.2893         estimate D2E/DX2                !
 ! A10   A(3,4,11)             104.7786         estimate D2E/DX2                !
 ! A11   A(3,4,12)             130.0401         estimate D2E/DX2                !
 ! A12   A(11,4,12)            125.1808         estimate D2E/DX2                !
 ! A13   A(8,7,9)              108.4841         estimate D2E/DX2                !
 ! A14   A(8,7,10)             108.3985         estimate D2E/DX2                !
 ! A15   A(8,7,11)             110.33           estimate D2E/DX2                !
 ! A16   A(9,7,10)             108.3986         estimate D2E/DX2                !
 ! A17   A(9,7,11)             110.33           estimate D2E/DX2                !
 ! A18   A(10,7,11)            110.8285         estimate D2E/DX2                !
 ! A19   A(1,11,4)             110.8739         estimate D2E/DX2                !
 ! A20   A(1,11,7)             124.5576         estimate D2E/DX2                !
 ! A21   A(4,11,7)             124.5577         estimate D2E/DX2                !
 ! A22   A(4,12,16)            158.5856         estimate D2E/DX2                !
 ! A23   A(1,13,18)            157.9249         estimate D2E/DX2                !
 ! A24   A(15,14,16)           109.5            estimate D2E/DX2                !
 ! A25   A(12,16,14)           160.1679         estimate D2E/DX2                !
 ! A26   A(18,17,19)           109.5            estimate D2E/DX2                !
 ! A27   L(13,18,17,5,-1)      181.7682         estimate D2E/DX2                !
 ! A28   L(13,18,17,5,-2)      181.9617         estimate D2E/DX2                !
 ! D1    D(11,1,2,3)             0.1278         estimate D2E/DX2                !
 ! D2    D(11,1,2,5)          -179.8532         estimate D2E/DX2                !
 ! D3    D(13,1,2,3)           179.868          estimate D2E/DX2                !
 ! D4    D(13,1,2,5)            -0.113          estimate D2E/DX2                !
 ! D5    D(2,1,11,4)            -0.212          estimate D2E/DX2                !
 ! D6    D(2,1,11,7)          -179.0648         estimate D2E/DX2                !
 ! D7    D(13,1,11,4)         -179.9686         estimate D2E/DX2                !
 ! D8    D(13,1,11,7)            1.1786         estimate D2E/DX2                !
 ! D9    D(2,1,13,18)            3.8376         estimate D2E/DX2                !
 ! D10   D(11,1,13,18)        -176.4698         estimate D2E/DX2                !
 ! D11   D(1,2,3,4)              0.0            estimate D2E/DX2                !
 ! D12   D(1,2,3,6)           -179.9787         estimate D2E/DX2                !
 ! D13   D(5,2,3,4)            179.9787         estimate D2E/DX2                !
 ! D14   D(5,2,3,6)             -0.0001         estimate D2E/DX2                !
 ! D15   D(2,3,4,11)            -0.1278         estimate D2E/DX2                !
 ! D16   D(2,3,4,12)          -179.868          estimate D2E/DX2                !
 ! D17   D(6,3,4,11)           179.8533         estimate D2E/DX2                !
 ! D18   D(6,3,4,12)             0.1131         estimate D2E/DX2                !
 ! D19   D(3,4,11,1)             0.212          estimate D2E/DX2                !
 ! D20   D(3,4,11,7)           179.0648         estimate D2E/DX2                !
 ! D21   D(12,4,11,1)          179.9686         estimate D2E/DX2                !
 ! D22   D(12,4,11,7)           -1.1786         estimate D2E/DX2                !
 ! D23   D(3,4,12,16)          -57.4087         estimate D2E/DX2                !
 ! D24   D(11,4,12,16)         122.8987         estimate D2E/DX2                !
 ! D25   D(8,7,11,1)          -157.4986         estimate D2E/DX2                !
 ! D26   D(8,7,11,4)            23.803          estimate D2E/DX2                !
 ! D27   D(9,7,11,1)           -37.6416         estimate D2E/DX2                !
 ! D28   D(9,7,11,4)           143.66           estimate D2E/DX2                !
 ! D29   D(10,7,11,1)           82.4299         estimate D2E/DX2                !
 ! D30   D(10,7,11,4)          -96.2685         estimate D2E/DX2                !
 ! D31   D(4,12,16,14)         144.2008         estimate D2E/DX2                !
 ! D32   D(1,13,17,19)         177.568          estimate D2E/DX2                !
 ! D33   D(15,14,16,12)         86.7588         estimate D2E/DX2                !
 --------------------------------------------------------------------------------
 Trust Radius=3.00D-01 FncErr=1.00D-07 GrdErr=1.00D-07
 Number of steps in this run=     90 maximum allowed number of steps=    114.
 GradGradGradGradGradGradGradGradGradGradGradGradGradGradGradGradGradGrad

                          Input orientation:                          
 ---------------------------------------------------------------------
 Center     Atomic      Atomic             Coordinates (Angstroms)
 Number     Number       Type             X           Y           Z
 ---------------------------------------------------------------------
      1          6           0       -1.182439   -0.214910   -0.000888
      2          6           0       -0.668774   -1.643015    0.003866
      3          6           0        0.668660   -1.643052    0.003862
      4          6           0        1.182403   -0.214975   -0.000894
      5          1           0       -1.362513   -2.471888    0.006319
      6          1           0        1.362353   -2.471963    0.006312
      7          6           0        0.000045    2.072890    0.007087
      8          1           0        0.952700    2.460536   -0.396669
      9          1           0       -0.827502    2.462606   -0.612691
     10          1           0       -0.124343    2.456130    1.035823
     11          7           0        0.000005    0.599609   -0.006700
     12          8           0        2.311185    0.201542   -0.004406
     13          8           0       -2.311197    0.201669   -0.004394
     14          8           0        5.145818    0.610078    0.571618
     15          1           0        5.336904    1.547072    0.487184
     16          1           0        4.195479    0.478664    0.606037
     17          8           0       -5.269711    0.139928    0.041743
     18          1           0       -4.309711    0.139928    0.041743
     19          1           0       -5.590166    1.044864    0.041743
 ---------------------------------------------------------------------
                    Distance matrix (angstroms):
                    1          2          3          4          5
     1  C    0.000000
     2  C    1.517682   0.000000
     3  C    2.337986   1.337434   0.000000
     4  C    2.364842   2.337986   1.517682   0.000000
     5  H    2.264162   1.080884   2.193773   3.401515   0.000000
     6  H    3.401515   2.193772   1.080884   2.264162   2.724866
     7  C    2.575337   3.775616   3.775617   2.575337   4.744636
     8  H    3.445791   4.430433   4.132861   2.714362   5.463645
     9  H    2.769364   4.154691   4.413056   3.403447   5.001864
    10  H    3.054307   4.261963   4.300824   3.149154   5.184429
    11  N    1.435844   2.340243   2.340243   1.435843   3.360166
    12  O    3.518359   3.504656   2.469916   1.203182   4.543501
    13  O    1.203181   2.469915   3.504656   3.518358   2.836904
    14  O    6.407434   6.261650   5.044194   4.088661   7.223327
    15  H    6.770866   6.817508   5.674768   4.539043   7.827226
    16  H    5.456318   5.340888   4.159657   3.150893   6.321131
    17  O    4.102868   4.934465   6.200380   6.462008   4.699897
    18  H    3.147628   4.054226   5.288160   5.503735   3.938123
    19  H    4.584420   5.607693   6.811698   6.888882   5.499259
                    6          7          8          9         10
     6  H    0.000000
     7  C    4.744636   0.000000
     8  H    4.965859   1.104916   0.000000
     9  H    5.434023   1.104915   1.793262   0.000000
    10  H    5.249406   1.104827   1.792226   1.792226   0.000000
    11  N    3.360166   1.473346   2.126676   2.126676   2.132835
    12  O    2.836904   2.973793   2.665034   3.915837   3.478080
    13  O    4.543500   2.973792   3.988657   2.771861   3.308621
    14  O    4.912551   5.379358   4.684444   6.365140   5.603391
    15  H    5.672824   5.384147   4.564741   6.328335   5.563507
    16  H    4.134304   4.527909   3.930502   5.536394   4.770319
    17  O    7.127938   5.613188   6.655511   5.055328   5.729555
    18  H    6.244641   4.723510   5.768050   4.236614   4.885724
    19  H    7.791460   5.684056   6.708608   5.012110   5.731936
                   11         12         13         14         15
    11  N    0.000000
    12  O    2.345211   0.000000
    13  O    2.345211   4.622382   0.000000
    14  O    5.178220   2.921276   7.490372   0.000000
    15  H    5.442802   3.347699   7.781080   0.960000   0.000000
    16  H    4.241706   2.000000   6.541115   0.960000   1.567952
    17  O    5.289949   7.581287   2.959518  10.439591  10.708817
    18  H    4.334433   6.621344   2.000000   9.482028   9.758876
    19  H    5.608084   7.946362   3.385963  10.757842  10.947670
                   16         17         18         19
    16  H    0.000000
    17  O    9.488045   0.000000
    18  H    8.530617   0.960000   0.000000
    19  H    9.818241   0.960000   1.567952   0.000000
 Stoichiometry    C5H9NO4
 Framework group  C1[X(C5H9NO4)]
 Deg. of freedom    51
 Full point group                 C1      NOp   1
 Largest Abelian subgroup         C1      NOp   1
 Largest concise Abelian subgroup C1      NOp   1
                         Standard orientation:                         
 ---------------------------------------------------------------------
 Center     Atomic      Atomic             Coordinates (Angstroms)
 Number     Number       Type             X           Y           Z
 ---------------------------------------------------------------------
      1          6           0        1.180420    0.283620   -0.023444
      2          6           0        0.728289    1.732280   -0.005503
      3          6           0       -0.606766    1.790543   -0.059923
      4          6           0       -1.180217    0.386640   -0.119668
      5          1           0        1.455993    2.529908    0.044960
      6          1           0       -1.264027    2.648612   -0.065913
      7          6           0       -0.097728   -1.950147   -0.118204
      8          1           0       -1.048372   -2.286935   -0.569526
      9          1           0        0.737582   -2.361731   -0.712925
     10          1           0       -0.032759   -2.361077    0.905299
     11          7           0       -0.034370   -0.478320   -0.096804
     12          8           0       -2.324585    0.019840   -0.179046
     13          8           0        2.289577   -0.181525    0.009036
     14          8           0       -5.195588   -0.277531    0.271250
     15          1           0       -5.422720   -1.203222    0.156767
     16          1           0       -4.242775   -0.188407    0.347434
     17          8           0        5.243540   -0.249678    0.176970
     18          1           0        4.285246   -0.207884    0.137910
     19          1           0        5.524886   -1.167486    0.168406
 ---------------------------------------------------------------------
 Rotational constants (GHZ):      3.0403881      0.4235480      0.3742792
 Standard basis: VSTO-6G (5D, 7F)
 There are    49 symmetry adapted cartesian basis functions of A   symmetry.
 There are    49 symmetry adapted basis functions of A   symmetry.
    49 basis functions,   294 primitive gaussians,    49 cartesian basis functions
    29 alpha electrons       29 beta electrons
       nuclear repulsion energy       319.6708395405 Hartrees.
 Integral buffers will be    131072 words long.
 Regular integral format.
 Two-electron integral symmetry is turned off.
 Nuclear repulsion after empirical dispersion term =      319.6671638861 Hartrees.
 ------------------------------------------------------------------------------
 Polarizable Continuum Model (PCM)
 =================================
 Model                : C-PCM.
 Atomic radii         : UFF (Universal Force Field).
 Polarization charges : Total charges.
 Charge compensation  : None.
 Solution method      : On-the-fly selection.
 Cavity type          : Scaled VdW (van der Waals Surface) (Alpha=1.100).
 Cavity algorithm     : GePol (No added spheres)
                        Default sphere list used, NSphG=   19.
                        Lebedev-Laikov grids with approx.  5.0 points / Ang**2.
                        Smoothing algorithm: Karplus/York (Gamma=1.0000).
                        Polarization charges: spherical gaussians, with
                                              point-specific exponents (IZeta= 3).
                        Self-potential: point-specific (ISelfS= 7).
                        Self-field    : sphere-specific E.n sum rule (ISelfD= 2).
 1st derivatives      : Analytical E(r).r(x)/FMM algorithm (CHGder, D1EAlg=3).
                        Cavity 1st derivative terms included.
 Solvent              : Toluene, Eps=   2.374100 Eps(inf)=   2.238315
 ------------------------------------------------------------------------------
 Spheres list:
 ISph  on   Nord     Re0    Alpha      Xe            Ye            Ze
    1   C      1    1.9255  1.100      1.180420      0.283620     -0.023444
    2   C      2    1.9255  1.100      0.728289      1.732280     -0.005503
    3   C      3    1.9255  1.100     -0.606766      1.790543     -0.059923
    4   C      4    1.9255  1.100     -1.180217      0.386640     -0.119668
    5   H      5    1.4430  1.100      1.455993      2.529908      0.044960
    6   H      6    1.4430  1.100     -1.264027      2.648612     -0.065913
    7   C      7    1.9255  1.100     -0.097728     -1.950147     -0.118204
    8   H      8    1.4430  1.100     -1.048372     -2.286935     -0.569526
    9   H      9    1.4430  1.100      0.737582     -2.361731     -0.712925
   10   H     10    1.4430  1.100     -0.032759     -2.361077      0.905299
   11   N     11    1.8300  1.100     -0.034370     -0.478320     -0.096804
   12   O     12    1.7500  1.100     -2.324585      0.019840     -0.179046
   13   O     13    1.7500  1.100      2.289577     -0.181525      0.009036
   14   O     14    1.7500  1.100     -5.195588     -0.277531      0.271250
   15   H     15    1.4430  1.100     -5.422720     -1.203222      0.156767
   16   H     16    1.4430  1.100     -4.242775     -0.188407      0.347434
   17   O     17    1.7500  1.100      5.243540     -0.249678      0.176970
   18   H     18    1.4430  1.100      4.285246     -0.207884      0.137910
   19   H     19    1.4430  1.100      5.524886     -1.167486      0.168406
 ------------------------------------------------------------------------------
 Do NDO integrals.
 One-electron integrals computed using PRISM.
 NBasis=    49 RedAO= F EigKep=  0.00D+00  NBF=    49
 NBsUse=    49 1.00D-04 EigRej=  0.00D+00 NBFU=    49
 Simple Huckel Guess.
 Overlap will be assumed to be unity.
 Keep J ints in memory in canonical form, NReq=6912775.
 Requested convergence on RMS density matrix=1.00D-08 within 128 cycles.
 Requested convergence on MAX density matrix=1.00D-06.
 Requested convergence on             energy=1.00D-06.
 No special actions if energy rises.
 Inv3:  Mode=1 IEnd=    10625772.
 Iteration    1 A*A^-1 deviation from unit magnitude is 1.01D-14 for   1866.
 Iteration    1 A*A^-1 deviation from orthogonality  is 2.04D-15 for   1202    434.
 Iteration    1 A^-1*A deviation from unit magnitude is 1.01D-14 for   1866.
 Iteration    1 A^-1*A deviation from orthogonality  is 4.11D-15 for   1874    930.
 Error on total polarization charges = -0.00024
 SCF Done:  E(RPM6D3) = -0.276187866130     A.U. after   14 cycles
            NFock= 13  Conv=0.94D-08     -V/T= 0.9917

 **********************************************************************

            Population analysis using the SCF density.

 **********************************************************************

 Orbital symmetries:
       Occupied  (A) (A) (A) (A) (A) (A) (A) (A) (A) (A) (A) (A)
                 (A) (A) (A) (A) (A) (A) (A) (A) (A) (A) (A) (A)
                 (A) (A) (A) (A) (A)
       Virtual   (A) (A) (A) (A) (A) (A) (A) (A) (A) (A) (A) (A)
                 (A) (A) (A) (A) (A) (A) (A) (A)
 The electronic state is 1-A.
 Alpha  occ. eigenvalues --   -1.25011  -1.21543  -1.18531  -1.09532  -1.09513
 Alpha  occ. eigenvalues --   -1.07355  -0.92464  -0.89639  -0.79251  -0.75826
 Alpha  occ. eigenvalues --   -0.69396  -0.69172  -0.65351  -0.63853  -0.62062
 Alpha  occ. eigenvalues --   -0.59406  -0.57569  -0.56944  -0.54599  -0.54552
 Alpha  occ. eigenvalues --   -0.51883  -0.51094  -0.50983  -0.45194  -0.44633
 Alpha  occ. eigenvalues --   -0.43450  -0.43435  -0.41443  -0.39839
 Alpha virt. eigenvalues --   -0.06624   0.00716   0.01770   0.02284   0.06948
 Alpha virt. eigenvalues --    0.07166   0.10775   0.11303   0.13345   0.15394
 Alpha virt. eigenvalues --    0.15427   0.16635   0.16717   0.18092   0.18100
 Alpha virt. eigenvalues --    0.18118   0.18474   0.20489   0.23572   0.23588
          Condensed to atoms (all electrons):
               1          2          3          4          5          6
     1  C    3.379530   0.000000   0.000000   0.000000   0.000000   0.000000
     2  C    0.000000   4.211996   0.000000   0.000000   0.000000   0.000000
     3  C    0.000000   0.000000   4.210813   0.000000   0.000000   0.000000
     4  C    0.000000   0.000000   0.000000   3.379919   0.000000   0.000000
     5  H    0.000000   0.000000   0.000000   0.000000   0.793916   0.000000
     6  H    0.000000   0.000000   0.000000   0.000000   0.000000   0.793916
     7  C    0.000000   0.000000   0.000000   0.000000   0.000000   0.000000
     8  H    0.000000   0.000000   0.000000   0.000000   0.000000   0.000000
     9  H    0.000000   0.000000   0.000000   0.000000   0.000000   0.000000
    10  H    0.000000   0.000000   0.000000   0.000000   0.000000   0.000000
    11  N    0.000000   0.000000   0.000000   0.000000   0.000000   0.000000
    12  O    0.000000   0.000000   0.000000   0.000000   0.000000   0.000000
    13  O    0.000000   0.000000   0.000000   0.000000   0.000000   0.000000
    14  O    0.000000   0.000000   0.000000   0.000000   0.000000   0.000000
    15  H    0.000000   0.000000   0.000000   0.000000   0.000000   0.000000
    16  H    0.000000   0.000000   0.000000   0.000000   0.000000   0.000000
    17  O    0.000000   0.000000   0.000000   0.000000   0.000000   0.000000
    18  H    0.000000   0.000000   0.000000   0.000000   0.000000   0.000000
    19  H    0.000000   0.000000   0.000000   0.000000   0.000000   0.000000
               7          8          9         10         11         12
     1  C    0.000000   0.000000   0.000000   0.000000   0.000000   0.000000
     2  C    0.000000   0.000000   0.000000   0.000000   0.000000   0.000000
     3  C    0.000000   0.000000   0.000000   0.000000   0.000000   0.000000
     4  C    0.000000   0.000000   0.000000   0.000000   0.000000   0.000000
     5  H    0.000000   0.000000   0.000000   0.000000   0.000000   0.000000
     6  H    0.000000   0.000000   0.000000   0.000000   0.000000   0.000000
     7  C    4.253028   0.000000   0.000000   0.000000   0.000000   0.000000
     8  H    0.000000   0.830656   0.000000   0.000000   0.000000   0.000000
     9  H    0.000000   0.000000   0.833087   0.000000   0.000000   0.000000
    10  H    0.000000   0.000000   0.000000   0.840403   0.000000   0.000000
    11  N    0.000000   0.000000   0.000000   0.000000   5.485679   0.000000
    12  O    0.000000   0.000000   0.000000   0.000000   0.000000   6.488850
    13  O    0.000000   0.000000   0.000000   0.000000   0.000000   0.000000
    14  O    0.000000   0.000000   0.000000   0.000000   0.000000   0.000000
    15  H    0.000000   0.000000   0.000000   0.000000   0.000000   0.000000
    16  H    0.000000   0.000000   0.000000   0.000000   0.000000   0.000000
    17  O    0.000000   0.000000   0.000000   0.000000   0.000000   0.000000
    18  H    0.000000   0.000000   0.000000   0.000000   0.000000   0.000000
    19  H    0.000000   0.000000   0.000000   0.000000   0.000000   0.000000
              13         14         15         16         17         18
     1  C    0.000000   0.000000   0.000000   0.000000   0.000000   0.000000
     2  C    0.000000   0.000000   0.000000   0.000000   0.000000   0.000000
     3  C    0.000000   0.000000   0.000000   0.000000   0.000000   0.000000
     4  C    0.000000   0.000000   0.000000   0.000000   0.000000   0.000000
     5  H    0.000000   0.000000   0.000000   0.000000   0.000000   0.000000
     6  H    0.000000   0.000000   0.000000   0.000000   0.000000   0.000000
     7  C    0.000000   0.000000   0.000000   0.000000   0.000000   0.000000
     8  H    0.000000   0.000000   0.000000   0.000000   0.000000   0.000000
     9  H    0.000000   0.000000   0.000000   0.000000   0.000000   0.000000
    10  H    0.000000   0.000000   0.000000   0.000000   0.000000   0.000000
    11  N    0.000000   0.000000   0.000000   0.000000   0.000000   0.000000
    12  O    0.000000   0.000000   0.000000   0.000000   0.000000   0.000000
    13  O    6.489059   0.000000   0.000000   0.000000   0.000000   0.000000
    14  O    0.000000   6.665679   0.000000   0.000000   0.000000   0.000000
    15  H    0.000000   0.000000   0.674545   0.000000   0.000000   0.000000
    16  H    0.000000   0.000000   0.000000   0.664116   0.000000   0.000000
    17  O    0.000000   0.000000   0.000000   0.000000   6.667045   0.000000
    18  H    0.000000   0.000000   0.000000   0.000000   0.000000   0.663581
    19  H    0.000000   0.000000   0.000000   0.000000   0.000000   0.000000
              19
     1  C    0.000000
     2  C    0.000000
     3  C    0.000000
     4  C    0.000000
     5  H    0.000000
     6  H    0.000000
     7  C    0.000000
     8  H    0.000000
     9  H    0.000000
    10  H    0.000000
    11  N    0.000000
    12  O    0.000000
    13  O    0.000000
    14  O    0.000000
    15  H    0.000000
    16  H    0.000000
    17  O    0.000000
    18  H    0.000000
    19  H    0.674183
 Mulliken charges:
               1
     1  C    0.620470
     2  C   -0.211996
     3  C   -0.210813
     4  C    0.620081
     5  H    0.206084
     6  H    0.206084
     7  C   -0.253028
     8  H    0.169344
     9  H    0.166913
    10  H    0.159597
    11  N   -0.485679
    12  O   -0.488850
    13  O   -0.489059
    14  O   -0.665679
    15  H    0.325455
    16  H    0.335884
    17  O   -0.667045
    18  H    0.336419
    19  H    0.325817
 Sum of Mulliken charges =   0.00000
 Mulliken charges with hydrogens summed into heavy atoms:
               1
     1  C    0.620470
     2  C   -0.005912
     3  C   -0.004729
     4  C    0.620081
     7  C    0.242826
    11  N   -0.485679
    12  O   -0.488850
    13  O   -0.489059
    14  O   -0.004340
    17  O   -0.004809
 Charge=              0.0000 electrons
 Dipole moment (field-independent basis, Debye):
    X=              0.1245    Y=             -1.7442    Z=             -0.1304  Tot=              1.7535
 N-N= 3.196671638861D+02 E-N=-5.654440800191D+02  KE=-3.326014612722D+01
 D1PCM: C-PCM CHGder 1st derivatives, ID1Alg=3 FixD1E=F DoIter=F DoCFld=F I1PDM=0.
 Calling FoFJK, ICntrl=      2127 FMM=F ISym2X=0 I1Cent= 0 IOpClX= 0 NMat=1 NMatS=1 NMatT=0.
 ***** Axes restored to original set *****
 -------------------------------------------------------------------
 Center     Atomic                   Forces (Hartrees/Bohr)
 Number     Number              X              Y              Z
 -------------------------------------------------------------------
      1        6           0.002386061   -0.001645235   -0.000105791
      2        6          -0.000143770    0.000480833    0.000038426
      3        6           0.000153599    0.000483962   -0.000004435
      4        6          -0.002408587   -0.001726750    0.000139018
      5        1          -0.000330314   -0.000436111   -0.000005488
      6        1           0.000336307   -0.000422627   -0.000022696
      7        6          -0.000226887    0.000009932   -0.000012309
      8        1           0.000006349    0.000030345   -0.000105802
      9        1           0.000054664    0.000159603   -0.000082626
     10        1          -0.000007330    0.000019226    0.000102063
     11        7           0.000092195    0.000399053    0.000067374
     12        8          -0.000675842    0.001472293   -0.000140404
     13        8           0.000422240    0.001914877    0.000031039
     14        8           0.004957496    0.000839615    0.000645706
     15        1          -0.005579124   -0.005160055    0.000252414
     16        1           0.001869945    0.004094768   -0.000798622
     17        8          -0.005073119    0.000015544    0.000087268
     18        1          -0.002056046    0.003779673   -0.000063036
     19        1           0.006222163   -0.004308945   -0.000022100
 -------------------------------------------------------------------
 Cartesian Forces:  Max     0.006222163 RMS     0.002013332

 GradGradGradGradGradGradGradGradGradGradGradGradGradGradGradGradGradGrad
 Berny optimization.
 FormGI is forming the generalized inverse of G from B-inverse, IUseBI=4.
 Internal  Forces:  Max     0.008042452 RMS     0.001668088
 Search for a local minimum.
 Step number   1 out of a maximum of   90
 All quantities printed in internal units (Hartrees-Bohrs-Radians)
 Mixed Optimization -- RFO/linear search
 Second derivative matrix not updated -- first step.
 ITU=  0
     Eigenvalues ---    0.00230   0.00230   0.00722   0.00856   0.01087
     Eigenvalues ---    0.01139   0.01558   0.01558   0.01558   0.01610
     Eigenvalues ---    0.01801   0.01828   0.02245   0.04295   0.04295
     Eigenvalues ---    0.04307   0.04307   0.07282   0.07339   0.16000
     Eigenvalues ---    0.16000   0.16000   0.16000   0.16000   0.16000
     Eigenvalues ---    0.16000   0.16000   0.16000   0.22680   0.24789
     Eigenvalues ---    0.24992   0.25000   0.25000   0.25000   0.29542
     Eigenvalues ---    0.30395   0.33144   0.33144   0.33154   0.35343
     Eigenvalues ---    0.35888   0.35888   0.37974   0.39345   0.55231
     Eigenvalues ---    0.55473   0.55473   0.55473   0.55473   1.03240
     Eigenvalues ---    1.03241
 RFO step:  Lambda=-1.10525661D-03 EMin= 2.30000000D-03
 Linear search not attempted -- first point.
 Iteration  1 RMS(Cart)=  0.02640768 RMS(Int)=  0.00174112
 Iteration  2 RMS(Cart)=  0.00171073 RMS(Int)=  0.00000431
 Iteration  3 RMS(Cart)=  0.00000631 RMS(Int)=  0.00000155
 Iteration  4 RMS(Cart)=  0.00000000 RMS(Int)=  0.00000155
 Variable       Old X    -DE/DX   Delta X   Delta X   Delta X     New X
                                 (Linear)    (Quad)   (Total)
    R1        2.86800  -0.00019   0.00000  -0.00057  -0.00057   2.86743
    R2        2.71335  -0.00102   0.00000  -0.00268  -0.00268   2.71068
    R3        2.27368   0.00094   0.00000   0.00091   0.00091   2.27459
    R4        2.52738  -0.00004   0.00000   0.00005   0.00005   2.52744
    R5        2.04257   0.00055   0.00000   0.00152   0.00152   2.04409
    R6        2.86800  -0.00026   0.00000  -0.00076  -0.00076   2.86725
    R7        2.04257   0.00054   0.00000   0.00150   0.00150   2.04407
    R8        2.71335  -0.00085   0.00000  -0.00225  -0.00225   2.71111
    R9        2.27368   0.00097   0.00000   0.00093   0.00093   2.27462
   R10        2.08799   0.00005   0.00000   0.00016   0.00016   2.08815
   R11        2.08799   0.00006   0.00000   0.00018   0.00018   2.08816
   R12        2.08782   0.00011   0.00000   0.00032   0.00032   2.08815
   R13        2.78422   0.00022   0.00000   0.00062   0.00062   2.78484
   R14        3.77945   0.00118   0.00000   0.02667   0.02667   3.80612
   R15        3.77945   0.00092   0.00000   0.02088   0.02088   3.80033
   R16        1.81414  -0.00617   0.00000  -0.01110  -0.01110   1.80303
   R17        1.81414  -0.00124   0.00000  -0.00223  -0.00223   1.81191
   R18        1.81414  -0.00115   0.00000  -0.00207  -0.00207   1.81207
   R19        1.81414  -0.00614   0.00000  -0.01104  -0.01104   1.80309
    A1        1.82873   0.00080   0.00000   0.00309   0.00309   1.83182
    A2        2.26963   0.00012   0.00000   0.00051   0.00051   2.27014
    A3        2.18482  -0.00091   0.00000  -0.00359  -0.00359   2.18122
    A4        1.91610  -0.00043   0.00000  -0.00150  -0.00150   1.91459
    A5        2.09944   0.00024   0.00000   0.00092   0.00092   2.10036
    A6        2.26765   0.00019   0.00000   0.00059   0.00059   2.26823
    A7        1.91610  -0.00046   0.00000  -0.00161  -0.00161   1.91448
    A8        2.26765   0.00022   0.00000   0.00072   0.00072   2.26837
    A9        2.09944   0.00025   0.00000   0.00089   0.00089   2.10033
   A10        1.82873   0.00079   0.00000   0.00312   0.00312   1.83185
   A11        2.26963   0.00016   0.00000   0.00067   0.00067   2.27030
   A12        2.18482  -0.00096   0.00000  -0.00381  -0.00381   2.18101
   A13        1.89340  -0.00015   0.00000  -0.00119  -0.00119   1.89221
   A14        1.89191   0.00003   0.00000   0.00012   0.00012   1.89203
   A15        1.92562  -0.00003   0.00000  -0.00038  -0.00038   1.92524
   A16        1.89191  -0.00003   0.00000   0.00016   0.00016   1.89207
   A17        1.92562   0.00022   0.00000   0.00142   0.00142   1.92704
   A18        1.93432  -0.00005   0.00000  -0.00015  -0.00015   1.93417
   A19        1.93512  -0.00069   0.00000  -0.00309  -0.00309   1.93203
   A20        2.17394   0.00023   0.00000   0.00108   0.00108   2.17502
   A21        2.17394   0.00047   0.00000   0.00203   0.00203   2.17598
   A22        2.76784  -0.00036   0.00000  -0.00223  -0.00223   2.76561
   A23        2.75631  -0.00158   0.00000  -0.00980  -0.00980   2.74651
   A24        1.91114  -0.00804   0.00000  -0.04992  -0.04992   1.86122
   A25        2.79546   0.00074   0.00000   0.00295   0.00295   2.79840
   A26        1.91114  -0.00803   0.00000  -0.04986  -0.04986   1.86128
   A27        3.17245   0.00025   0.00000   0.01493   0.01493   3.18739
   A28        3.17583  -0.00009   0.00000  -0.00539  -0.00539   3.17044
    D1        0.00223  -0.00001   0.00000  -0.00040  -0.00040   0.00183
    D2       -3.13903   0.00001   0.00000   0.00072   0.00072  -3.13831
    D3        3.13929  -0.00001   0.00000   0.00016   0.00016   3.13945
    D4       -0.00197   0.00002   0.00000   0.00128   0.00128  -0.00069
    D5       -0.00370   0.00000   0.00000   0.00029   0.00029  -0.00341
    D6       -3.12527  -0.00002   0.00000  -0.00122  -0.00122  -3.12649
    D7       -3.14105  -0.00001   0.00000  -0.00025  -0.00025  -3.14130
    D8        0.02057  -0.00003   0.00000  -0.00176  -0.00175   0.01881
    D9        0.06698  -0.00001   0.00000  -0.00037  -0.00037   0.06661
   D10       -3.07998   0.00000   0.00000   0.00031   0.00031  -3.07967
   D11        0.00000   0.00002   0.00000   0.00036   0.00036   0.00036
   D12       -3.14122   0.00004   0.00000   0.00159   0.00159  -3.13963
   D13        3.14122  -0.00001   0.00000  -0.00090  -0.00090   3.14032
   D14        0.00000   0.00001   0.00000   0.00032   0.00033   0.00032
   D15       -0.00223  -0.00002   0.00000  -0.00018  -0.00019  -0.00242
   D16       -3.13929   0.00006   0.00000   0.00369   0.00370  -3.13559
   D17        3.13903  -0.00004   0.00000  -0.00128  -0.00128   3.13775
   D18        0.00197   0.00004   0.00000   0.00260   0.00260   0.00458
   D19        0.00370   0.00001   0.00000  -0.00009  -0.00008   0.00362
   D20        3.12527   0.00003   0.00000   0.00141   0.00141   3.12668
   D21        3.14105  -0.00006   0.00000  -0.00370  -0.00369   3.13735
   D22       -0.02057  -0.00004   0.00000  -0.00221  -0.00220  -0.02277
   D23       -1.00197  -0.00004   0.00000  -0.00230  -0.00229  -1.00426
   D24        2.14499   0.00004   0.00000   0.00227   0.00226   2.14725
   D25       -2.74887   0.00002   0.00000   0.00096   0.00096  -2.74790
   D26        0.41544   0.00001   0.00000  -0.00069  -0.00069   0.41475
   D27       -0.65697  -0.00004   0.00000   0.00014   0.00014  -0.65683
   D28        2.50734  -0.00005   0.00000  -0.00151  -0.00151   2.50583
   D29        1.43867   0.00004   0.00000   0.00116   0.00116   1.43984
   D30       -1.68020   0.00002   0.00000  -0.00049  -0.00049  -1.68069
   D31        2.51678  -0.00038   0.00000  -0.11230  -0.11230   2.40447
   D32        3.09915   0.00004   0.00000   0.01152   0.01152   3.11067
   D33        1.51423  -0.00054   0.00000  -0.03231  -0.03231   1.48192
         Item               Value     Threshold  Converged?
 Maximum Force            0.008042     0.000450     NO 
 RMS     Force            0.001668     0.000300     NO 
 Maximum Displacement     0.170634     0.001800     NO 
 RMS     Displacement     0.026881     0.001200     NO 
 Predicted change in Energy=-5.640644D-04
 GradGradGradGradGradGradGradGradGradGradGradGradGradGradGradGradGradGrad

                          Input orientation:                          
 ---------------------------------------------------------------------
 Center     Atomic      Atomic             Coordinates (Angstroms)
 Number     Number       Type             X           Y           Z
 ---------------------------------------------------------------------
      1          6           0       -1.181680   -0.212602    0.000235
      2          6           0       -0.667787   -1.640309    0.003053
      3          6           0        0.669664   -1.638019    0.007713
      4          6           0        1.178482   -0.208597    0.008976
      5          1           0       -1.361076   -2.470601   -0.000125
      6          1           0        1.365905   -2.465831    0.009107
      7          6           0       -0.006453    2.078626    0.017556
      8          1           0        0.946966    2.468759   -0.382211
      9          1           0       -0.831784    2.469054   -0.604889
     10          1           0       -0.135205    2.459699    1.046745
     11          7           0       -0.003108    0.605047    0.001219
     12          8           0        2.306043    0.212642    0.007230
     13          8           0       -2.310761    0.204460   -0.005976
     14          8           0        5.154671    0.593676    0.601561
     15          1           0        5.329503    1.509043    0.396888
     16          1           0        4.201256    0.495411    0.627602
     17          8           0       -5.278650    0.128289    0.035268
     18          1           0       -4.319759    0.123137    0.034487
     19          1           0       -5.547030    1.043831    0.022257
 ---------------------------------------------------------------------
                    Distance matrix (angstroms):
                    1          2          3          4          5
     1  C    0.000000
     2  C    1.517380   0.000000
     3  C    2.336524   1.337461   0.000000
     4  C    2.360182   2.336353   1.517282   0.000000
     5  H    2.265115   1.081686   2.194803   3.400898   0.000000
     6  H    3.401074   2.194863   1.081677   2.265001   2.727001
     7  C    2.575109   3.777308   3.777656   2.575954   4.746661
     8  H    3.444865   4.431738   4.134558   2.715671   5.465376
     9  H    2.771260   4.157325   4.415617   3.404088   5.004606
    10  H    3.054749   4.264154   4.303336   3.150007   5.187154
    11  N    1.434428   2.341672   2.341797   1.434655   3.362097
    12  O    3.513558   3.503871   2.470361   1.203677   4.543965
    13  O    1.203663   2.470348   3.503977   3.513640   2.838642
    14  O    6.415685   6.264975   5.044641   4.099375   7.225426
    15  H    6.746621   6.785352   5.636448   4.509072   7.794808
    16  H    5.465425   5.353404   4.172280   3.164725   6.334888
    17  O    4.111277   4.938526   6.205082   6.465968   4.701369
    18  H    3.156174   4.055567   5.291193   5.508299   3.934778
    19  H    4.542619   5.568841   6.770511   6.841145   5.465706
                    6          7          8          9         10
     6  H    0.000000
     7  C    4.747160   0.000000
     8  H    4.967778   1.105000   0.000000
     9  H    5.436903   1.105008   1.792634   0.000000
    10  H    5.252701   1.104999   1.792510   1.792542   0.000000
    11  N    3.362224   1.473673   2.126754   2.128048   2.133145
    12  O    2.838676   2.971471   2.662483   3.913060   3.477003
    13  O    4.544068   2.970335   3.985147   2.770281   3.305658
    14  O    4.905744   5.402161   4.710470   6.388286   5.626990
    15  H    5.626731   5.379660   4.553535   6.315586   5.584719
    16  H    4.146167   4.536909   3.937541   5.544888   4.779017
    17  O    7.133040   5.621405   6.664112   5.065926   5.737037
    18  H    6.247413   4.735909   5.780482   4.251835   4.898437
    19  H    7.752842   5.636383   6.660781   4.965694   5.687012
                   11         12         13         14         15
    11  N    0.000000
    12  O    2.342263   0.000000
    13  O    2.342175   4.616830   0.000000
    14  O    5.192612   2.934808   7.500218   0.000000
    15  H    5.423145   3.312672   7.761306   0.954125   0.000000
    16  H    4.252182   2.014113   6.549232   0.958819   1.534151
    17  O    5.297150   7.585214   2.969153  10.459037  10.703745
    18  H    4.343595   6.626462   2.011050   9.503041   9.755015
    19  H    5.561298   7.896952   3.343467  10.726818  10.892921
                   16         17         18         19
    16  H    0.000000
    17  O    9.505486   0.000000
    18  H    8.549740   0.958906   0.000000
    19  H    9.782447   0.954156   1.534282   0.000000
 Stoichiometry    C5H9NO4
 Framework group  C1[X(C5H9NO4)]
 Deg. of freedom    51
 Full point group                 C1      NOp   1
 Largest Abelian subgroup         C1      NOp   1
 Largest concise Abelian subgroup C1      NOp   1
                         Standard orientation:                         
 ---------------------------------------------------------------------
 Center     Atomic      Atomic             Coordinates (Angstroms)
 Number     Number       Type             X           Y           Z
 ---------------------------------------------------------------------
      1          6           0        1.178589    0.282373   -0.024604
      2          6           0        0.725873    1.730566   -0.009509
      3          6           0       -0.609378    1.786058   -0.062684
      4          6           0       -1.177712    0.380323   -0.117922
      5          1           0        1.453096    2.529940    0.037316
      6          1           0       -1.269392    2.642989   -0.071376
      7          6           0       -0.092039   -1.955663   -0.113403
      8          1           0       -1.042496   -2.295164   -0.563287
      9          1           0        0.742753   -2.367479   -0.708863
     10          1           0       -0.025114   -2.364786    0.910884
     11          7           0       -0.032377   -0.483322   -0.094278
     12          8           0       -2.320888    0.008421   -0.178547
     13          8           0        2.288206   -0.182921    0.007893
     14          8           0       -5.206553   -0.262117    0.282803
     15          1           0       -5.410700   -1.164272    0.048723
     16          1           0       -4.251920   -0.205811    0.352369
     17          8           0        5.251938   -0.236205    0.179131
     18          1           0        4.295093   -0.189543    0.137054
     19          1           0        5.481696   -1.161987    0.155619
 ---------------------------------------------------------------------
 Rotational constants (GHZ):      3.0444913      0.4227202      0.3737312
 Standard basis: VSTO-6G (5D, 7F)
 There are    49 symmetry adapted cartesian basis functions of A   symmetry.
 There are    49 symmetry adapted basis functions of A   symmetry.
    49 basis functions,   294 primitive gaussians,    49 cartesian basis functions
    29 alpha electrons       29 beta electrons
       nuclear repulsion energy       319.6596011424 Hartrees.
 Integral buffers will be    131072 words long.
 Regular integral format.
 Two-electron integral symmetry is turned off.
 Nuclear repulsion after empirical dispersion term =      319.6559087092 Hartrees.
 ------------------------------------------------------------------------------
 Polarizable Continuum Model (PCM)
 =================================
 Model                : C-PCM.
 Atomic radii         : UFF (Universal Force Field).
 Polarization charges : Total charges.
 Charge compensation  : None.
 Solution method      : On-the-fly selection.
 Cavity type          : Scaled VdW (van der Waals Surface) (Alpha=1.100).
 Cavity algorithm     : GePol (No added spheres)
                        Default sphere list used, NSphG=   19.
                        Lebedev-Laikov grids with approx.  5.0 points / Ang**2.
                        Smoothing algorithm: Karplus/York (Gamma=1.0000).
                        Polarization charges: spherical gaussians, with
                                              point-specific exponents (IZeta= 3).
                        Self-potential: point-specific (ISelfS= 7).
                        Self-field    : sphere-specific E.n sum rule (ISelfD= 2).
 1st derivatives      : Analytical E(r).r(x)/FMM algorithm (CHGder, D1EAlg=3).
                        Cavity 1st derivative terms included.
 Solvent              : Toluene, Eps=   2.374100 Eps(inf)=   2.238315
 ------------------------------------------------------------------------------
 Spheres list:
 ISph  on   Nord     Re0    Alpha      Xe            Ye            Ze
    1   C      1    1.9255  1.100      1.178589      0.282373     -0.024604
    2   C      2    1.9255  1.100      0.725873      1.730566     -0.009509
    3   C      3    1.9255  1.100     -0.609378      1.786058     -0.062684
    4   C      4    1.9255  1.100     -1.177712      0.380323     -0.117922
    5   H      5    1.4430  1.100      1.453096      2.529940      0.037316
    6   H      6    1.4430  1.100     -1.269392      2.642989     -0.071376
    7   C      7    1.9255  1.100     -0.092039     -1.955663     -0.113403
    8   H      8    1.4430  1.100     -1.042496     -2.295164     -0.563287
    9   H      9    1.4430  1.100      0.742753     -2.367479     -0.708863
   10   H     10    1.4430  1.100     -0.025114     -2.364786      0.910884
   11   N     11    1.8300  1.100     -0.032377     -0.483322     -0.094278
   12   O     12    1.7500  1.100     -2.320888      0.008421     -0.178547
   13   O     13    1.7500  1.100      2.288206     -0.182921      0.007893
   14   O     14    1.7500  1.100     -5.206553     -0.262117      0.282803
   15   H     15    1.4430  1.100     -5.410700     -1.164272      0.048723
   16   H     16    1.4430  1.100     -4.251920     -0.205811      0.352369
   17   O     17    1.7500  1.100      5.251938     -0.236205      0.179131
   18   H     18    1.4430  1.100      4.295093     -0.189543      0.137054
   19   H     19    1.4430  1.100      5.481696     -1.161987      0.155619
 ------------------------------------------------------------------------------
 Do NDO integrals.
 One-electron integrals computed using PRISM.
 NBasis=    49 RedAO= F EigKep=  0.00D+00  NBF=    49
 NBsUse=    49 1.00D-04 EigRej=  0.00D+00 NBFU=    49
 Initial guess from the checkpoint file:  "PM6_2H2O_dienophile_pm6_cpcmtoluene_1.chk"
 B after Tr=     0.000000    0.000000    0.000000
         Rot=    1.000000    0.000901    0.000048   -0.000193 Ang=   0.11 deg.
 Overlap will be assumed to be unity.
 Keep J ints in memory in canonical form, NReq=6952141.
 Requested convergence on RMS density matrix=1.00D-08 within 128 cycles.
 Requested convergence on MAX density matrix=1.00D-06.
 Requested convergence on             energy=1.00D-06.
 No special actions if energy rises.
 Inv3:  Mode=1 IEnd=    10738992.
 Iteration    1 A*A^-1 deviation from unit magnitude is 8.88D-15 for   1876.
 Iteration    1 A*A^-1 deviation from orthogonality  is 1.65D-15 for   1256    455.
 Iteration    1 A^-1*A deviation from unit magnitude is 8.88D-15 for   1876.
 Iteration    1 A^-1*A deviation from orthogonality  is 3.13D-15 for   1884    933.
 Error on total polarization charges = -0.00023
 SCF Done:  E(RPM6D3) = -0.276853068394     A.U. after   12 cycles
            NFock= 11  Conv=0.71D-08     -V/T= 0.9917
 D1PCM: C-PCM CHGder 1st derivatives, ID1Alg=3 FixD1E=F DoIter=F DoCFld=F I1PDM=0.
 Calling FoFJK, ICntrl=      2127 FMM=F ISym2X=0 I1Cent= 0 IOpClX= 0 NMat=1 NMatS=1 NMatT=0.
 ***** Axes restored to original set *****
 -------------------------------------------------------------------
 Center     Atomic                   Forces (Hartrees/Bohr)
 Number     Number              X              Y              Z
 -------------------------------------------------------------------
      1        6           0.000377519   -0.001213511    0.000039957
      2        6          -0.000215584    0.000174539   -0.000057456
      3        6           0.000188131    0.000206708    0.000041566
      4        6          -0.000337562   -0.001131669   -0.000182666
      5        1          -0.000069326   -0.000087179    0.000025231
      6        1           0.000078553   -0.000082488    0.000031817
      7        6          -0.000067805   -0.000049794    0.000014695
      8        1           0.000020089   -0.000010527   -0.000051927
      9        1           0.000035711   -0.000036633   -0.000013770
     10        1          -0.000012884   -0.000043751    0.000018538
     11        7           0.000013527    0.000616644    0.000052846
     12        8          -0.000567291    0.001021733   -0.000005618
     13        8           0.000246555    0.001421988   -0.000009912
     14        8           0.002399069    0.000970369    0.000676677
     15        1          -0.000479840   -0.000784298   -0.000235849
     16        1          -0.000880310   -0.000462733   -0.000347788
     17        8          -0.002524259    0.000525408    0.000078629
     18        1           0.001253619   -0.000330482   -0.000055862
     19        1           0.000542087   -0.000704325   -0.000019109
 -------------------------------------------------------------------
 Cartesian Forces:  Max     0.002524259 RMS     0.000667200

 GradGradGradGradGradGradGradGradGradGradGradGradGradGradGradGradGradGrad
 Berny optimization.
 Using GEDIIS/GDIIS optimizer.
 FormGI is forming the generalized inverse of G from B-inverse, IUseBI=4.
 Internal  Forces:  Max     0.001980809 RMS     0.000451363
 Search for a local minimum.
 Step number   2 out of a maximum of   90
 All quantities printed in internal units (Hartrees-Bohrs-Radians)
 Mixed Optimization -- En-DIIS/RFO-DIIS
 Update second derivatives using D2CorX and points    1    2
 DE= -6.65D-04 DEPred=-5.64D-04 R= 1.18D+00
 TightC=F SS=  1.41D+00  RLast= 1.44D-01 DXNew= 5.0454D-01 4.3155D-01
 Trust test= 1.18D+00 RLast= 1.44D-01 DXMaxT set to 4.32D-01
 ITU=  1  0
 Use linear search instead of GDIIS.
     Eigenvalues ---    0.00210   0.00230   0.00722   0.00856   0.01087
     Eigenvalues ---    0.01137   0.01477   0.01558   0.01558   0.01610
     Eigenvalues ---    0.01799   0.01827   0.02244   0.03978   0.04295
     Eigenvalues ---    0.04296   0.04307   0.07279   0.07335   0.14428
     Eigenvalues ---    0.16000   0.16000   0.16000   0.16000   0.16000
     Eigenvalues ---    0.16000   0.16000   0.17706   0.22682   0.24753
     Eigenvalues ---    0.24957   0.24993   0.24999   0.25084   0.29537
     Eigenvalues ---    0.30395   0.33144   0.33145   0.33154   0.35352
     Eigenvalues ---    0.35875   0.35888   0.38126   0.39340   0.53572
     Eigenvalues ---    0.55234   0.55473   0.55473   0.59180   1.03112
     Eigenvalues ---    1.03241
 RFO step:  Lambda=-2.12000262D-04 EMin= 2.09991553D-03
 Quartic linear search produced a step of  0.22586.
 Iteration  1 RMS(Cart)=  0.04666572 RMS(Int)=  0.00671213
 Iteration  2 RMS(Cart)=  0.01038223 RMS(Int)=  0.00021176
 Iteration  3 RMS(Cart)=  0.00028543 RMS(Int)=  0.00000042
 Iteration  4 RMS(Cart)=  0.00000023 RMS(Int)=  0.00000039
 Variable       Old X    -DE/DX   Delta X   Delta X   Delta X     New X
                                 (Linear)    (Quad)   (Total)
    R1        2.86743  -0.00010  -0.00013  -0.00038  -0.00051   2.86692
    R2        2.71068   0.00024  -0.00060   0.00087   0.00027   2.71094
    R3        2.27459   0.00077   0.00021   0.00087   0.00107   2.27567
    R4        2.52744   0.00024   0.00001   0.00049   0.00050   2.52794
    R5        2.04409   0.00011   0.00034   0.00031   0.00065   2.04474
    R6        2.86725  -0.00013  -0.00017  -0.00047  -0.00064   2.86660
    R7        2.04407   0.00011   0.00034   0.00032   0.00065   2.04473
    R8        2.71111   0.00029  -0.00051   0.00099   0.00048   2.71159
    R9        2.27462   0.00070   0.00021   0.00078   0.00099   2.27561
   R10        2.08815   0.00003   0.00004   0.00010   0.00014   2.08829
   R11        2.08816  -0.00004   0.00004  -0.00014  -0.00010   2.08806
   R12        2.08815   0.00001   0.00007   0.00003   0.00010   2.08825
   R13        2.78484  -0.00014   0.00014  -0.00051  -0.00037   2.78447
   R14        3.80612   0.00097   0.00602   0.02572   0.03174   3.83786
   R15        3.80033   0.00075   0.00472   0.01980   0.02452   3.82485
   R16        1.80303  -0.00079  -0.00251  -0.00124  -0.00375   1.79929
   R17        1.81191   0.00191  -0.00050   0.00431   0.00381   1.81571
   R18        1.81207   0.00198  -0.00047   0.00445   0.00398   1.81605
   R19        1.80309  -0.00083  -0.00249  -0.00131  -0.00381   1.79929
    A1        1.83182   0.00005   0.00070   0.00009   0.00079   1.83260
    A2        2.27014  -0.00001   0.00011  -0.00010   0.00002   2.27016
    A3        2.18122  -0.00003  -0.00081   0.00001  -0.00081   2.18042
    A4        1.91459   0.00001  -0.00034   0.00011  -0.00023   1.91436
    A5        2.10036   0.00000   0.00021  -0.00005   0.00016   2.10052
    A6        2.26823  -0.00001   0.00013  -0.00006   0.00007   2.26830
    A7        1.91448   0.00002  -0.00036   0.00015  -0.00022   1.91427
    A8        2.26837   0.00000   0.00016  -0.00002   0.00015   2.26851
    A9        2.10033  -0.00002   0.00020  -0.00013   0.00007   2.10040
   A10        1.83185   0.00004   0.00070   0.00008   0.00078   1.83263
   A11        2.27030   0.00005   0.00015   0.00022   0.00037   2.27067
   A12        2.18101  -0.00009  -0.00086  -0.00028  -0.00114   2.17987
   A13        1.89221   0.00000  -0.00027   0.00000  -0.00027   1.89194
   A14        1.89203   0.00005   0.00003   0.00048   0.00051   1.89254
   A15        1.92524  -0.00001  -0.00009  -0.00008  -0.00017   1.92507
   A16        1.89207   0.00005   0.00004   0.00034   0.00038   1.89245
   A17        1.92704  -0.00002   0.00032  -0.00026   0.00006   1.92710
   A18        1.93417  -0.00007  -0.00003  -0.00045  -0.00048   1.93369
   A19        1.93203  -0.00012  -0.00070  -0.00041  -0.00111   1.93092
   A20        2.17502   0.00002   0.00024   0.00003   0.00028   2.17530
   A21        2.17598   0.00010   0.00046   0.00038   0.00083   2.17681
   A22        2.76561  -0.00037  -0.00050  -0.00268  -0.00318   2.76243
   A23        2.74651  -0.00156  -0.00221  -0.01138  -0.01359   2.73292
   A24        1.86122  -0.00061  -0.01127  -0.00220  -0.01347   1.84774
   A25        2.79840   0.00065   0.00067   0.00302   0.00369   2.80209
   A26        1.86128  -0.00058  -0.01126  -0.00200  -0.01326   1.84802
   A27        3.18739   0.00025   0.00337   0.01782   0.02119   3.20858
   A28        3.17044  -0.00008  -0.00122  -0.00572  -0.00694   3.16351
    D1        0.00183   0.00001  -0.00009   0.00090   0.00081   0.00263
    D2       -3.13831  -0.00001   0.00016  -0.00092  -0.00076  -3.13907
    D3        3.13945   0.00001   0.00004   0.00087   0.00091   3.14036
    D4       -0.00069  -0.00001   0.00029  -0.00095  -0.00066  -0.00134
    D5       -0.00341   0.00001   0.00006   0.00089   0.00096  -0.00246
    D6       -3.12649   0.00001  -0.00028   0.00119   0.00092  -3.12557
    D7       -3.14130   0.00001  -0.00006   0.00091   0.00086  -3.14044
    D8        0.01881   0.00001  -0.00040   0.00122   0.00082   0.01963
    D9        0.06661   0.00001  -0.00008   0.00019   0.00011   0.06672
   D10       -3.07967   0.00001   0.00007   0.00016   0.00023  -3.07944
   D11        0.00036  -0.00003   0.00008  -0.00223  -0.00215  -0.00179
   D12       -3.13963  -0.00002   0.00036  -0.00149  -0.00113  -3.14076
   D13        3.14032  -0.00001  -0.00020  -0.00018  -0.00039   3.13993
   D14        0.00032   0.00001   0.00007   0.00056   0.00063   0.00095
   D15       -0.00242   0.00003  -0.00004   0.00272   0.00268   0.00026
   D16       -3.13559   0.00001   0.00083   0.00085   0.00168  -3.13391
   D17        3.13775   0.00002  -0.00029   0.00206   0.00177   3.13953
   D18        0.00458   0.00000   0.00059   0.00019   0.00078   0.00536
   D19        0.00362  -0.00002  -0.00002  -0.00213  -0.00214   0.00147
   D20        3.12668  -0.00003   0.00032  -0.00243  -0.00211   3.12456
   D21        3.13735   0.00000  -0.00083  -0.00038  -0.00121   3.13614
   D22       -0.02277   0.00000  -0.00050  -0.00068  -0.00118  -0.02395
   D23       -1.00426  -0.00005  -0.00052  -0.00079  -0.00131  -1.00557
   D24        2.14725  -0.00008   0.00051  -0.00300  -0.00249   2.14476
   D25       -2.74790   0.00001   0.00022  -0.00025  -0.00003  -2.74794
   D26        0.41475   0.00001  -0.00016   0.00010  -0.00006   0.41470
   D27       -0.65683  -0.00001   0.00003  -0.00048  -0.00045  -0.65728
   D28        2.50583  -0.00001  -0.00034  -0.00013  -0.00047   2.50536
   D29        1.43984  -0.00001   0.00026  -0.00051  -0.00025   1.43959
   D30       -1.68069   0.00000  -0.00011  -0.00016  -0.00027  -1.68096
   D31        2.40447  -0.00049  -0.02536  -0.20129  -0.22665   2.17782
   D32        3.11067   0.00005   0.00260   0.02003   0.02264   3.13331
   D33        1.48192  -0.00068  -0.00730  -0.04968  -0.05698   1.42494
         Item               Value     Threshold  Converged?
 Maximum Force            0.001981     0.000450     NO 
 RMS     Force            0.000451     0.000300     NO 
 Maximum Displacement     0.301080     0.001800     NO 
 RMS     Displacement     0.054541     0.001200     NO 
 Predicted change in Energy=-1.495217D-04
 GradGradGradGradGradGradGradGradGradGradGradGradGradGradGradGradGradGrad

                          Input orientation:                          
 ---------------------------------------------------------------------
 Center     Atomic      Atomic             Coordinates (Angstroms)
 Number     Number       Type             X           Y           Z
 ---------------------------------------------------------------------
      1          6           0       -1.183478   -0.202583    0.001251
      2          6           0       -0.662771   -1.627535    0.001117
      3          6           0        0.674867   -1.618486    0.013571
      4          6           0        1.175988   -0.186725    0.020666
      5          1           0       -1.352088   -2.461529   -0.008092
      6          1           0        1.375629   -2.442923    0.016514
      7          6           0       -0.020769    2.095002    0.034531
      8          1           0        0.932474    2.491938   -0.359115
      9          1           0       -0.845028    2.483959   -0.590153
     10          1           0       -0.156486    2.470095    1.065079
     11          7           0       -0.009442    0.621750    0.011378
     12          8           0        2.301635    0.241070    0.024785
     13          8           0       -2.315052    0.209251   -0.008960
     14          8           0        5.167240    0.564795    0.666083
     15          1           0        5.400619    1.382401    0.237564
     16          1           0        4.206959    0.532257    0.664738
     17          8           0       -5.296291    0.097876    0.024397
     18          1           0       -4.335311    0.090083    0.023092
     19          1           0       -5.549501    1.015019   -0.011750
 ---------------------------------------------------------------------
                    Distance matrix (angstroms):
                    1          2          3          4          5
     1  C    0.000000
     2  C    1.517110   0.000000
     3  C    2.336317   1.337727   0.000000
     4  C    2.359599   2.336098   1.516941   0.000000
     5  H    2.265249   1.082029   2.195390   3.400989   0.000000
     6  H    3.401233   2.195488   1.082023   2.265017   2.727891
     7  C    2.575247   3.777641   3.778140   2.576568   4.747231
     8  H    3.444932   4.432227   4.135316   2.716389   5.466194
     9  H    2.771609   4.157788   4.416403   3.404432   5.005372
    10  H    3.054448   4.263674   4.302710   3.150394   5.186721
    11  N    1.434568   2.342269   2.342422   1.434909   3.362987
    12  O    3.513316   3.504275   2.470718   1.204203   4.544756
    13  O    1.204231   2.470611   3.504390   3.513551   2.839078
    14  O    6.431367   6.263986   5.037252   4.112352   7.219057
    15  H    6.776308   6.773502   5.602520   4.511841   7.774008
    16  H    5.480604   5.368367   4.186334   3.180967   6.349682
    17  O    4.123839   4.944400   6.212950   6.478535   4.701952
    18  H    3.165468   4.054411   5.293504   5.518247   3.925725
    19  H    4.532646   5.555483   6.758605   6.832089   5.450200
                    6          7          8          9         10
     6  H    0.000000
     7  C    4.747949   0.000000
     8  H    4.968937   1.105073   0.000000
     9  H    5.438155   1.104953   1.792472   0.000000
    10  H    5.252106   1.105053   1.792942   1.792784   0.000000
    11  N    3.363134   1.473478   2.126517   2.127878   2.132672
    12  O    2.839256   2.971652   2.662402   3.912823   3.477517
    13  O    4.544866   2.970133   3.984934   2.770028   3.305206
    14  O    4.883096   5.445717   4.764258   6.434958   5.668459
    15  H    5.557204   5.471789   4.642351   6.395831   5.722698
    16  H    4.157923   4.551156   3.951061   5.559358   4.791153
    17  O    7.139344   5.640900   6.684020   5.087711   5.755697
    18  H    6.247480   4.757637   5.802116   4.276539   4.920648
    19  H    7.740516   5.633417   6.657173   4.962298   5.688710
                   11         12         13         14         15
    11  N    0.000000
    12  O    2.342258   0.000000
    13  O    2.342308   4.616920   0.000000
    14  O    5.218230   2.954278   7.521090   0.000000
    15  H    5.467954   3.309323   7.808242   0.952142   0.000000
    16  H    4.267661   2.030909   6.564666   0.960833   1.526449
    17  O    5.312756   7.599275   2.983505  10.493582  10.775868
    18  H    4.358434   6.638663   2.024024   9.536104   9.823667
    19  H    5.554047   7.889275   3.333306  10.747590  10.959117
                   16         17         18         19
    16  H    0.000000
    17  O    9.534699   0.000000
    18  H    8.577739   0.961012   0.000000
    19  H    9.791793   0.952142   1.526754   0.000000
 Stoichiometry    C5H9NO4
 Framework group  C1[X(C5H9NO4)]
 Deg. of freedom    51
 Full point group                 C1      NOp   1
 Largest Abelian subgroup         C1      NOp   1
 Largest concise Abelian subgroup C1      NOp   1
                         Standard orientation:                         
 ---------------------------------------------------------------------
 Center     Atomic      Atomic             Coordinates (Angstroms)
 Number     Number       Type             X           Y           Z
 ---------------------------------------------------------------------
      1          6           0        1.178389    0.276629   -0.027036
      2          6           0        0.718890    1.722447   -0.017236
      3          6           0       -0.616939    1.771082   -0.069270
      4          6           0       -1.177757    0.362580   -0.121366
      5          1           0        1.442396    2.525789    0.027129
      6          1           0       -1.281599    2.624833   -0.079772
      7          6           0       -0.080439   -1.968592   -0.105994
      8          1           0       -1.029127   -2.314919   -0.554588
      9          1           0        0.756318   -2.378775   -0.699718
     10          1           0       -0.011364   -2.372249    0.920374
     11          7           0       -0.028458   -0.496083   -0.093529
     12          8           0       -2.319294   -0.016029   -0.181810
     13          8           0        2.290721   -0.183511    0.007019
     14          8           0       -5.224002   -0.229609    0.312977
     15          1           0       -5.470369   -1.026511   -0.146178
     16          1           0       -4.264293   -0.238684    0.358555
     17          8           0        5.268779   -0.202182    0.186252
     18          1           0        4.310205   -0.152734    0.138983
     19          1           0        5.484542   -1.128392    0.139828
 ---------------------------------------------------------------------
 Rotational constants (GHZ):      3.0595919      0.4202423      0.3722171
 Standard basis: VSTO-6G (5D, 7F)
 There are    49 symmetry adapted cartesian basis functions of A   symmetry.
 There are    49 symmetry adapted basis functions of A   symmetry.
    49 basis functions,   294 primitive gaussians,    49 cartesian basis functions
    29 alpha electrons       29 beta electrons
       nuclear repulsion energy       319.4357796843 Hartrees.
 Integral buffers will be    131072 words long.
 Regular integral format.
 Two-electron integral symmetry is turned off.
 Nuclear repulsion after empirical dispersion term =      319.4320833153 Hartrees.
 ------------------------------------------------------------------------------
 Polarizable Continuum Model (PCM)
 =================================
 Model                : C-PCM.
 Atomic radii         : UFF (Universal Force Field).
 Polarization charges : Total charges.
 Charge compensation  : None.
 Solution method      : On-the-fly selection.
 Cavity type          : Scaled VdW (van der Waals Surface) (Alpha=1.100).
 Cavity algorithm     : GePol (No added spheres)
                        Default sphere list used, NSphG=   19.
                        Lebedev-Laikov grids with approx.  5.0 points / Ang**2.
                        Smoothing algorithm: Karplus/York (Gamma=1.0000).
                        Polarization charges: spherical gaussians, with
                                              point-specific exponents (IZeta= 3).
                        Self-potential: point-specific (ISelfS= 7).
                        Self-field    : sphere-specific E.n sum rule (ISelfD= 2).
 1st derivatives      : Analytical E(r).r(x)/FMM algorithm (CHGder, D1EAlg=3).
                        Cavity 1st derivative terms included.
 Solvent              : Toluene, Eps=   2.374100 Eps(inf)=   2.238315
 ------------------------------------------------------------------------------
 Spheres list:
 ISph  on   Nord     Re0    Alpha      Xe            Ye            Ze
    1   C      1    1.9255  1.100      1.178389      0.276629     -0.027036
    2   C      2    1.9255  1.100      0.718890      1.722447     -0.017236
    3   C      3    1.9255  1.100     -0.616939      1.771082     -0.069270
    4   C      4    1.9255  1.100     -1.177757      0.362580     -0.121366
    5   H      5    1.4430  1.100      1.442396      2.525789      0.027129
    6   H      6    1.4430  1.100     -1.281599      2.624833     -0.079772
    7   C      7    1.9255  1.100     -0.080439     -1.968592     -0.105994
    8   H      8    1.4430  1.100     -1.029127     -2.314919     -0.554588
    9   H      9    1.4430  1.100      0.756318     -2.378775     -0.699718
   10   H     10    1.4430  1.100     -0.011364     -2.372249      0.920374
   11   N     11    1.8300  1.100     -0.028458     -0.496083     -0.093529
   12   O     12    1.7500  1.100     -2.319294     -0.016029     -0.181810
   13   O     13    1.7500  1.100      2.290721     -0.183511      0.007019
   14   O     14    1.7500  1.100     -5.224002     -0.229609      0.312977
   15   H     15    1.4430  1.100     -5.470369     -1.026511     -0.146178
   16   H     16    1.4430  1.100     -4.264293     -0.238684      0.358555
   17   O     17    1.7500  1.100      5.268779     -0.202182      0.186252
   18   H     18    1.4430  1.100      4.310205     -0.152734      0.138983
   19   H     19    1.4430  1.100      5.484542     -1.128392      0.139828
 ------------------------------------------------------------------------------
 Do NDO integrals.
 One-electron integrals computed using PRISM.
 NBasis=    49 RedAO= F EigKep=  0.00D+00  NBF=    49
 NBsUse=    49 1.00D-04 EigRej=  0.00D+00 NBFU=    49
 Initial guess from the checkpoint file:  "PM6_2H2O_dienophile_pm6_cpcmtoluene_1.chk"
 B after Tr=     0.000000    0.000000    0.000000
         Rot=    0.999998    0.002049    0.000044   -0.000531 Ang=   0.24 deg.
 Overlap will be assumed to be unity.
 Keep J ints in memory in canonical form, NReq=6943929.
 Requested convergence on RMS density matrix=1.00D-08 within 128 cycles.
 Requested convergence on MAX density matrix=1.00D-06.
 Requested convergence on             energy=1.00D-06.
 No special actions if energy rises.
 Inv3:  Mode=1 IEnd=    10716300.
 Iteration    1 A*A^-1 deviation from unit magnitude is 6.00D-15 for   1856.
 Iteration    1 A*A^-1 deviation from orthogonality  is 1.72D-15 for   1872   1806.
 Iteration    1 A^-1*A deviation from unit magnitude is 6.00D-15 for   1856.
 Iteration    1 A^-1*A deviation from orthogonality  is 1.50D-15 for   1633   1597.
 Error on total polarization charges = -0.00024
 SCF Done:  E(RPM6D3) = -0.277089314666     A.U. after   12 cycles
            NFock= 11  Conv=0.92D-08     -V/T= 0.9917
 D1PCM: C-PCM CHGder 1st derivatives, ID1Alg=3 FixD1E=F DoIter=F DoCFld=F I1PDM=0.
 Calling FoFJK, ICntrl=      2127 FMM=F ISym2X=0 I1Cent= 0 IOpClX= 0 NMat=1 NMatS=1 NMatT=0.
 ***** Axes restored to original set *****
 -------------------------------------------------------------------
 Center     Atomic                   Forces (Hartrees/Bohr)
 Number     Number              X              Y              Z
 -------------------------------------------------------------------
      1        6          -0.000406429   -0.000611760    0.000023209
      2        6           0.000048328    0.000032419    0.000077635
      3        6          -0.000068392    0.000058759   -0.000164363
      4        6           0.000420352   -0.000424271    0.000091162
      5        1           0.000059978    0.000045733    0.000012714
      6        1          -0.000053466    0.000041419    0.000049246
      7        6           0.000001326   -0.000001652   -0.000013951
      8        1           0.000006195    0.000002940    0.000006230
      9        1          -0.000002131   -0.000020430   -0.000000011
     10        1           0.000002405    0.000004801   -0.000006392
     11        7          -0.000013511   -0.000059866   -0.000045679
     12        8          -0.001005955    0.000691734   -0.000146677
     13        8           0.000744922    0.001051825   -0.000017345
     14        8           0.000798100    0.000579669    0.000664112
     15        1           0.000867844    0.000493168   -0.000690295
     16        1          -0.000901169   -0.001395619    0.000151518
     17        8          -0.000827808    0.000236009    0.000071031
     18        1           0.001220635   -0.001310595   -0.000002181
     19        1          -0.000891223    0.000585719   -0.000059964
 -------------------------------------------------------------------
 Cartesian Forces:  Max     0.001395619 RMS     0.000511393

 GradGradGradGradGradGradGradGradGradGradGradGradGradGradGradGradGradGrad
 Berny optimization.
 Using GEDIIS/GDIIS optimizer.
 FormGI is forming the generalized inverse of G from B-inverse, IUseBI=4.
 Internal  Forces:  Max     0.001725125 RMS     0.000429349
 Search for a local minimum.
 Step number   3 out of a maximum of   90
 All quantities printed in internal units (Hartrees-Bohrs-Radians)
 Mixed Optimization -- En-DIIS/RFO-DIIS
 Swapping is turned off.
 Update second derivatives using D2CorX and points    1    2    3
 DE= -2.36D-04 DEPred=-1.50D-04 R= 1.58D+00
 TightC=F SS=  1.41D+00  RLast= 2.41D-01 DXNew= 7.2577D-01 7.2199D-01
 Trust test= 1.58D+00 RLast= 2.41D-01 DXMaxT set to 7.22D-01
 ITU=  1  1  0
     Eigenvalues ---    0.00086   0.00230   0.00722   0.00856   0.01084
     Eigenvalues ---    0.01137   0.01179   0.01558   0.01558   0.01610
     Eigenvalues ---    0.01799   0.01834   0.02244   0.03610   0.04295
     Eigenvalues ---    0.04297   0.04307   0.07282   0.07338   0.14260
     Eigenvalues ---    0.16000   0.16000   0.16000   0.16000   0.16000
     Eigenvalues ---    0.16000   0.16007   0.22682   0.23674   0.24752
     Eigenvalues ---    0.24968   0.24994   0.25000   0.26485   0.29537
     Eigenvalues ---    0.30386   0.33145   0.33145   0.33154   0.35356
     Eigenvalues ---    0.35888   0.35965   0.38113   0.39339   0.53481
     Eigenvalues ---    0.55305   0.55473   0.55479   0.67699   1.03240
     Eigenvalues ---    1.04290
 En-DIIS/RFO-DIIS IScMMF=        0 using points:     3    2
 RFO step:  Lambda=-4.52158853D-05.
 DidBck=F Rises=F RFO-DIIS coefs:    2.95942   -1.95942
 Iteration  1 RMS(Cart)=  0.07165903 RMS(Int)=  0.06569407
 Iteration  2 RMS(Cart)=  0.05264814 RMS(Int)=  0.04252750
 Iteration  3 RMS(Cart)=  0.04230400 RMS(Int)=  0.01997452
 Iteration  4 RMS(Cart)=  0.03674871 RMS(Int)=  0.00299337
 Iteration  5 RMS(Cart)=  0.00310521 RMS(Int)=  0.00000463
 Iteration  6 RMS(Cart)=  0.00000855 RMS(Int)=  0.00000165
 Iteration  7 RMS(Cart)=  0.00000000 RMS(Int)=  0.00000165
 Variable       Old X    -DE/DX   Delta X   Delta X   Delta X     New X
                                 (Linear)    (Quad)   (Total)
    R1        2.86692  -0.00006  -0.00100  -0.00046  -0.00146   2.86546
    R2        2.71094   0.00007   0.00052  -0.00101  -0.00049   2.71045
    R3        2.27567  -0.00004   0.00210  -0.00049   0.00161   2.27728
    R4        2.52794  -0.00007   0.00098  -0.00074   0.00024   2.52818
    R5        2.04474  -0.00007   0.00127  -0.00030   0.00097   2.04571
    R6        2.86660  -0.00007  -0.00126  -0.00052  -0.00178   2.86482
    R7        2.04473  -0.00007   0.00128  -0.00026   0.00102   2.04575
    R8        2.71159   0.00009   0.00094  -0.00088   0.00006   2.71164
    R9        2.27561  -0.00010   0.00195  -0.00058   0.00137   2.27698
   R10        2.08829   0.00000   0.00027  -0.00002   0.00025   2.08854
   R11        2.08806  -0.00001  -0.00020   0.00008  -0.00012   2.08793
   R12        2.08825   0.00000   0.00020   0.00011   0.00031   2.08856
   R13        2.78447  -0.00001  -0.00072   0.00051  -0.00021   2.78426
   R14        3.83786   0.00071   0.06219   0.03067   0.09286   3.93072
   R15        3.82485   0.00053   0.04804   0.02224   0.07028   3.89513
   R16        1.79929   0.00094  -0.00734   0.00186  -0.00548   1.79381
[...]
 164,-0.04117178,0.00193062,0.91836074,0.02076540,0.06557798,-0.0011343
 2,-0.03338079,-0.03323120,-0.00021570,-0.02066682,-0.16991359,0.001225
 54,0.23199238,0.51954213,-0.00501360,-0.00361453,-0.01263752,-0.001096
 33,-0.00056948,0.00756820,0.00141664,0.00051961,-0.07457246,0.02612124
 ,-0.00041215,0.15012172,0.01031525,0.00161284,0.00008315,-0.10201647,-
 0.08718608,-0.00046441,-0.02912603,-0.02264629,-0.00102280,-0.00396352
 ,-0.00168726,-0.00056062,0.12694638,-0.00500904,-0.03310340,0.00084208
 ,-0.09014955,-0.14685282,-0.00139311,-0.00892173,0.00242402,-0.0003268
 0,0.00015895,-0.00472125,0.00038476,0.10416041,0.18076921,0.00029649,0
 .00113510,0.00768839,-0.00027846,-0.00118591,-0.04201055,-0.00132750,-
 0.00085080,0.00624161,-0.00059476,0.00021198,0.00956416,0.00172725,0.0
 0059471,0.02377924,-0.00408785,0.00171206,-0.00065657,-0.03143798,0.01
 982606,-0.00217027,-0.11643556,0.08944468,-0.00559891,0.00975950,0.001
 81604,0.00003355,-0.00107297,-0.00079744,0.00002154,0.14386031,-0.0001
 3371,-0.00458623,0.00036741,0.00612092,0.00480464,0.00028655,0.0923848
 7,-0.13195056,0.00638680,0.00846723,-0.03257208,0.00143351,0.00061186,
 0.00122411,-0.00002770,-0.10681639,0.16330463,-0.00061510,0.00035975,0
 .00955376,-0.00187004,0.00098385,0.00618911,-0.00579180,0.00632063,-0.
 04245205,-0.00017793,0.00112898,0.00766409,-0.00000024,-0.00009009,-0.
 00126493,0.00832478,-0.00837076,0.02432299,0.00511365,-0.01726243,0.00
 098508,-0.00328053,-0.00443689,-0.00022853,-0.00332851,0.00403883,-0.0
 0037660,0.00333760,0.01862311,0.00007659,0.00073221,-0.00073852,0.0000
 3446,0.00059545,0.00075739,0.00001376,0.41623975,-0.00971788,-0.021319
 30,0.00001063,-0.00053154,0.00044899,0.00000391,0.00027261,0.00089639,
 0.00003726,0.01154130,-0.01930724,0.00089370,0.00001089,-0.00001781,0.
 00000123,0.00004363,0.00005351,0.00000295,-0.00257750,0.45499392,0.001
 28850,-0.00000652,-0.00796652,-0.00013467,-0.00000072,0.00356807,-0.00
 050505,0.00037071,0.00388279,-0.00023946,0.00151091,-0.00896407,-0.000
 01270,-0.00001260,0.00008881,0.00006056,0.00005814,0.00012984,0.001858
 08,-0.00068594,0.37764742,-0.00165145,0.00004964,-0.00001894,0.0001529
 6,0.00067563,0.00000714,-0.00028789,0.00027080,-0.00000203,0.00424236,
 0.00121205,-0.00000608,-0.00013351,-0.00001448,-0.00000200,0.00011962,
 -0.00005589,0.00000511,-0.18426756,-0.06297746,0.02766697,0.21633739,0
 .00144679,-0.00322689,0.00088905,-0.00079246,-0.00091278,-0.00017825,-
 0.00043269,0.00073130,-0.00016507,0.00193489,-0.00431541,0.00099002,0.
 00014123,-0.00019103,0.00000046,0.00013044,0.00009480,0.00000287,-0.05
 395646,-0.05465929,0.01053498,0.07960994,0.08583155,0.00027587,-0.0000
 7353,0.00044851,-0.00005367,-0.00009269,-0.00000899,0.00004773,-0.0000
 8925,-0.00010595,-0.00031878,0.00055505,0.00114571,0.00002971,0.000013
 39,0.00002009,-0.00003526,0.00000758,0.00001400,0.02773062,0.01136202,
 -0.03839104,-0.03426337,-0.01507920,0.03844414,0.00295571,-0.00085762,
 0.00034591,-0.00017441,-0.00022309,-0.00002399,0.00002125,-0.00035910,
 0.00002098,-0.00079848,0.00052129,-0.00040509,0.00007044,0.00004024,0.
 00000145,-0.00006348,0.00001289,-0.00000689,-0.10205950,0.03413122,-0.
 08056734,-0.02033287,0.00188195,-0.01585396,0.11671936,-0.00110744,-0.
 00267951,0.00232217,0.00029045,0.00043030,-0.00044496,0.00062609,-0.00
 071116,-0.00055647,-0.00128279,-0.00265911,0.00259032,-0.00008029,0.00
 006825,-0.00001177,-0.00009851,-0.00013532,-0.00003211,0.02768942,-0.0
 4566878,0.03531280,-0.00314947,0.00437075,-0.00311620,-0.04503171,0.07
 341525,0.00143838,0.00087314,0.00082325,-0.00013109,-0.00033259,-0.000
 07787,0.00022762,-0.00042047,-0.00005523,-0.00142355,-0.00026336,0.000
 27249,0.00011648,0.00005080,0.00002142,-0.00012270,0.00003207,0.000007
 25,-0.08092179,0.03995026,-0.12933209,-0.00363895,-0.00062454,0.002811
 46,0.09985541,-0.05242636,0.15057160,0.00178812,-0.00088507,-0.0001830
 3,-0.00012482,-0.00010176,0.00003555,-0.00003013,-0.00019600,-0.000041
 52,-0.00016564,0.00090119,0.00037233,0.00003675,0.00002684,0.00000302,
 -0.00002948,0.00000317,-0.00000382,-0.05457928,0.02104006,0.05281966,-
 0.01164717,0.00278109,0.02092463,0.00553902,-0.00195736,-0.01148607,0.
 05777595,-0.00015624,-0.00194621,-0.00277797,0.00010626,0.00015975,0.0
 0062801,0.00021772,-0.00034470,0.00075354,-0.00053242,-0.00216493,-0.0
 0312915,-0.00003846,0.00002999,0.00001506,-0.00004258,-0.00006057,0.00
 003085,0.01768749,-0.04979138,-0.04904635,-0.00160842,0.00473909,0.003
 56600,-0.00084553,0.00480536,0.00189425,-0.02825602,0.07914606,-0.0017
 2483,-0.00053074,0.00061795,0.00014781,0.00041239,-0.00011500,-0.00022
 939,0.00046770,-0.00016369,0.00185223,0.00018046,0.00060551,-0.0001292
 3,-0.00005898,0.00001007,0.00013677,-0.00004079,0.00001732,0.05316361,
 -0.05472438,-0.17199045,0.00891645,-0.00055405,-0.00628090,0.00120503,
 -0.00293495,-0.02350771,-0.06568555,0.07034111,0.20280519,-0.11978507,
 -0.05842022,-0.00170608,0.00972114,-0.01902163,0.00034740,0.00621484,0
 .02476782,-0.00083334,-0.13385764,0.06055606,-0.00659336,-0.00047243,-
 0.00067197,0.00004613,-0.00022032,0.00078884,0.00008333,-0.07421275,0.
 00887911,-0.00192035,-0.00190293,-0.03202151,0.00148968,-0.00111619,0.
 02368694,-0.00404264,0.00195210,0.01322246,0.00242363,0.54513562,-0.10
 406923,-0.16368610,-0.00151269,-0.01812654,-0.06497918,0.00132598,0.02
 377380,-0.06150688,0.00310588,0.10613654,-0.14944896,0.00746272,0.0037
 5670,-0.00138117,0.00016255,-0.00365859,-0.00163635,-0.00016090,0.0100
 0255,-0.26484998,0.00166797,-0.01226672,-0.03343968,0.00310862,0.01002
 250,-0.03184375,0.01133585,0.00630234,-0.03531875,-0.01265514,-0.01124
 819,0.77628801,-0.00171531,0.00040990,-0.03516356,0.00024879,0.0011765
 5,0.01172695,-0.00071980,0.00303661,0.01138360,-0.00658544,0.00543136,
 -0.03408609,-0.00001570,-0.00006224,-0.00183380,0.00014838,0.00000591,
 -0.00185404,-0.00201948,0.00324226,-0.03135547,0.00109882,0.00447612,0
 .00244293,-0.00437946,0.01981718,-0.00107607,0.00318239,-0.02285190,-0
 .00161376,0.02164627,-0.01328137,0.06218801,0.02336363,0.01722058,0.00
 029691,0.00046217,-0.00348707,0.00011097,-0.02619431,-0.02985750,-0.00
 105470,-0.60014191,-0.26703918,-0.01509571,0.00086897,0.00106155,0.000
 07440,-0.00277926,0.00175044,-0.00010526,-0.00268483,0.00140037,-0.000
 02370,-0.00123216,-0.00096855,0.00017567,0.00036294,-0.00010483,0.0006
 6953,0.00011639,-0.00022707,-0.00082067,-0.11904000,0.00577175,-0.0060
 1437,0.73651634,0.00557976,-0.00566017,0.00063677,-0.00151273,-0.00346
 522,-0.00004076,-0.03946638,-0.02583544,-0.00047227,-0.24548334,-0.162
 17905,-0.00688186,-0.00002946,0.00135692,-0.00005968,-0.00088066,0.001
 13656,-0.00009318,0.00251370,-0.00002633,0.00024382,-0.00185525,0.0006
 1320,-0.00014575,-0.00018424,0.00035847,-0.00001083,-0.00036271,0.0003
 5315,-0.00003371,0.00387425,0.01687858,-0.00037242,0.27623079,0.178910
 79,0.00051662,0.00103865,0.00579683,0.00011483,-0.00006282,-0.00056938
 ,-0.00076455,-0.00017459,0.01627890,-0.01585590,-0.00789643,-0.0527449
 7,0.00009615,-0.00002210,-0.00125816,-0.00005738,0.00003116,-0.0005728
 8,-0.00031907,0.00001408,0.00137383,0.00022327,-0.00022476,-0.00045186
 ,0.00009735,-0.00023755,-0.00007738,-0.00009414,0.00024594,-0.00019721
 ,-0.00567515,0.00020458,0.00937779,0.02210616,0.00716487,0.02504314,-0
 .63932012,0.22647430,-0.03440437,-0.03180327,0.02937858,-0.00297992,0.
 00001533,0.00379197,-0.00004379,0.02485744,-0.01468126,0.00125749,-0.0
 0269369,-0.00206019,-0.00007946,0.00096105,-0.00109115,0.00011972,-0.0
 0194341,-0.00154120,-0.00030122,0.00063126,0.00016064,-0.00014633,-0.0
 0110864,0.00057415,-0.00053738,-0.00061972,0.00049858,0.00074135,-0.11
 719632,-0.01659983,-0.00507172,-0.01393289,-0.00061847,-0.00051767,0.7
 7780525,0.20542745,-0.12261858,0.01194291,0.03886492,-0.02015861,0.002
 85998,0.00176587,-0.00303361,0.00009830,-0.00313642,-0.00728560,0.0002
 8985,0.00056231,0.00103547,-0.00002903,0.00000831,0.00126642,-0.000056
 17,-0.00235160,-0.00071860,0.00002943,0.00011233,0.00040305,-0.0000202
 0,0.00088818,0.00028246,-0.00008516,0.00069955,0.00041508,0.00017383,-
 0.01460701,0.01557412,-0.00113671,-0.00072131,0.00201670,-0.00013931,-
 0.22604355,0.13731496,-0.03363974,0.01285368,-0.05437814,-0.00325460,0
 .00230474,0.01611187,-0.00005015,0.00024459,-0.00057094,0.00105343,-0.
 00033146,0.00582818,-0.00012654,-0.00013697,-0.00057845,0.00009899,-0.
 00011525,-0.00126142,-0.00000873,-0.00010825,0.00125822,0.00001125,-0.
 00006737,-0.00009721,-0.00028666,-0.00026577,-0.00038629,0.00015893,0.
 00031594,-0.00019454,-0.00546768,-0.00077686,0.00967734,-0.00057308,-0
 .00013690,-0.00129793,0.04178479,-0.01396500,0.02658765,0.00159784,-0.
 00151072,0.00008425,-0.00079090,0.00118482,-0.00010570,-0.00445721,0.0
 0144068,0.00022058,0.00309438,-0.00113456,0.00005603,0.00032008,0.0004
 6206,0.00000393,0.00178274,-0.00166359,-0.00024265,-0.00017606,0.00002
 265,-0.00001835,-0.00009162,-0.00010619,0.00002154,0.00004596,0.000003
 42,0.00008274,0.00002104,-0.00001280,-0.00009565,-0.00132361,0.0010815
 7,-0.00008880,-0.00219778,0.00231991,-0.00003598,-0.00119128,0.0004903
 3,-0.00006177,0.11150286,-0.00208218,-0.00032677,-0.00011509,0.0005763
 0,-0.00021355,0.00004759,0.00042197,0.00110221,-0.00000051,-0.00666181
 ,-0.00078870,-0.00032360,-0.00013964,-0.00029875,-0.00000728,0.0005683
 3,-0.00132439,-0.00010227,0.00028843,-0.00001700,0.00002181,-0.0000121
 5,0.00010883,-0.00002738,-0.00005820,-0.00000209,-0.00006430,-0.000047
 34,0.00001163,0.00005951,0.00279225,-0.00005682,0.00016707,0.00749426,
 -0.00273385,0.00048776,0.00115955,-0.00008101,0.00006610,-0.03600259,0
 .22503267,-0.00046449,-0.00018836,-0.00024968,0.00009021,-0.00002252,0
 .00001073,0.00047403,-0.00008623,0.00088915,-0.00167072,-0.00027343,-0
 .00080045,-0.00002371,-0.00005530,-0.00006451,-0.00061984,-0.00006623,
 -0.00101403,0.00006467,-0.00000413,0.00002946,0.00000298,0.00002243,-0
 .00005242,-0.00000449,0.00000007,-0.00004265,-0.00001376,-0.00000501,-
 0.00001668,0.00073104,0.00002913,0.00025767,0.00212856,-0.00076517,0.0
 0133266,0.00026551,-0.00001060,0.00008237,-0.10730246,0.04977859,0.113
 20553,-0.00064126,0.00017769,-0.00000891,0.00020031,-0.00015677,0.0000
 2143,0.00000973,0.00014301,-0.00017685,-0.00191720,0.00020180,0.000035
 72,-0.00007167,-0.00009220,0.00000490,-0.00026905,-0.00004705,0.000272
 22,0.00006242,-0.00000324,0.00000256,0.00002058,0.00003999,-0.00000256
 ,-0.00001765,0.00000286,-0.00002097,-0.00000933,0.00000774,0.00002863,
 0.00075912,-0.00021044,0.00001817,0.00143937,-0.00070641,-0.00008130,0
 .00039309,-0.00009792,0.00001435,-0.09345283,0.04173732,0.09493879,0.1
 0377058,0.00038776,-0.00008329,0.00002365,-0.00011976,0.00009821,-0.00
 001441,-0.00017840,-0.00003226,-0.00000370,0.00085798,-0.00027121,0.00
 001621,0.00004413,0.00008533,0.00000467,0.00054419,0.00006857,0.000083
 10,-0.00004997,0.00000274,-0.00000425,0.00000810,-0.00001452,0.0000023
 1,0.00001413,-0.00000167,0.00001070,0.00001140,-0.00000383,-0.00001036
 ,-0.00038068,0.00007682,-0.00002309,-0.00016129,-0.00009405,0.00014075
 ,-0.00022575,0.00004162,-0.00001447,0.00534529,-0.03413054,-0.00837739
 ,-0.04047953,0.05882320,0.00041310,-0.00005692,0.00009399,-0.00013931,
 0.00012990,-0.00003104,-0.00044665,0.00007721,-0.00012357,0.00139382,-
 0.00011851,0.00029312,0.00004283,0.00007133,0.00002276,0.00081857,0.00
 002182,0.00010717,-0.00005235,0.00000449,-0.00001947,-0.00001047,-0.00
 002139,0.00002557,0.00000722,0.00000180,0.00002889,0.00000835,0.000002
 25,-0.00000509,-0.00055626,0.00010824,-0.00012165,-0.00123155,0.000516
 25,-0.00032414,-0.00025865,0.00005402,-0.00003906,0.09244560,-0.044510
 69,-0.09631291,-0.10551168,0.04466464,0.10893473,-0.00220211,0.0001854
 5,-0.00011098,0.00072624,-0.00051592,0.00006028,0.00021459,0.00052892,
 -0.00004961,-0.01110618,0.00103647,-0.00052783,-0.00020327,-0.00033678
 ,-0.00000440,-0.00072890,-0.00106730,-0.00000445,0.00029253,-0.0000313
 5,0.00001183,0.00007527,0.00014052,-0.00002409,-0.00005084,-0.00001273
 ,-0.00008437,-0.00002658,0.00000732,0.00009815,0.00302196,-0.00057837,
 0.00013827,0.00454268,0.00068199,0.00022184,0.00134752,-0.00023943,0.0
 0006998,-0.01468643,-0.00998975,0.01140746,-0.01027064,0.03437471,0.01
 307485,0.02908377,0.00244176,0.00134384,0.00010240,-0.00021993,-0.0003
 2768,-0.00000729,0.00016279,-0.00040633,-0.00006162,0.01023307,0.00278
 374,0.00041274,0.00008726,0.00014962,0.00000767,-0.00181661,0.00037740
 ,-0.00001338,-0.00034317,-0.00001502,-0.00001053,0.00002427,-0.0001325
 9,0.00002737,0.00005959,0.00000206,0.00006709,0.00004795,-0.00001162,-
 0.00006867,-0.00403547,-0.00039784,-0.00016668,-0.00879079,-0.00157040
 ,-0.00058787,-0.00130846,-0.00004306,-0.00006889,0.02809313,-0.1862724
 1,-0.03997146,-0.00051565,-0.02456322,-0.00094630,-0.02417535,0.209049
 91,-0.00001073,0.00018088,0.00015403,0.00005831,-0.00010183,-0.0000012
 7,0.00010501,-0.00003752,-0.00043173,-0.00032936,0.00037244,0.00074517
 ,-0.00001933,-0.00002299,0.00003975,-0.00038731,-0.00000102,0.00041563
 ,0.00000196,-0.00000107,0.00001784,0.00000946,0.00000238,0.00003394,-0
 .00000587,-0.00001126,0.00001278,0.00000793,0.00001104,0.00002570,-0.0
 0003916,-0.00012139,-0.00004447,-0.00065122,0.00045864,-0.00170499,0.0
 0003352,-0.00003881,-0.00004618,0.01503384,-0.00547923,-0.01726741,0.0
 1046888,-0.03649716,-0.01252487,-0.02427575,0.04128588,0.03058210,0.00
 224677,0.00140593,0.00024165,-0.00415471,-0.00186938,-0.00066653,-0.00
 064137,-0.00121206,0.00004019,0.00123641,0.00164987,0.00006002,0.00157
 341,0.00190404,0.00048306,0.00033719,-0.00040215,0.00003038,-0.0001585
 1,-0.00003039,-0.00000060,0.00007462,0.00000248,-0.00001637,-0.0000611
 6,0.00005786,-0.00007190,-0.00003724,0.00003864,0.00009034,-0.00093137
 ,-0.00114926,-0.00003253,-0.00101708,-0.00056918,-0.00004146,-0.001189
 57,-0.00211494,-0.00023236,-0.00034687,0.00015580,0.00000689,0.0001023
 8,-0.00004606,-0.00003825,0.00024152,-0.00009567,0.00002735,0.08899398
 ,0.00691067,-0.00013356,0.00027622,-0.00086079,0.00090912,-0.00009407,
 -0.00061674,-0.00036413,0.00000140,0.00221366,-0.00001817,0.00007134,-
 0.00030989,-0.00120913,-0.00010766,0.00019304,-0.00032123,0.00000831,-
 0.00029788,-0.00006301,-0.00000294,0.00009153,0.00000078,-0.00001950,0
 .00000433,0.00008339,-0.00006505,0.00001727,0.00005358,0.00006296,-0.0
 0286969,-0.00035368,-0.00007764,-0.00124149,-0.00022695,-0.00003770,-0
 .00738282,-0.00353595,-0.00017344,-0.00020790,0.00021597,0.00004894,0.
 00005827,-0.00005717,-0.00004174,0.00019393,-0.00016416,-0.00000218,0.
 02074724,0.22981660,0.00197302,-0.00001261,-0.00063133,-0.00090906,-0.
 00028836,0.00078769,-0.00014733,-0.00013767,0.00000632,0.00061450,-0.0
 0000492,-0.00020039,0.00084879,0.00015357,-0.00091604,0.00006405,-0.00
 008945,-0.00005985,-0.00008002,-0.00001698,0.00003002,0.00002317,-0.00
 000204,-0.00003673,-0.00001174,0.00002296,-0.00006286,0.00001057,0.000
 00696,-0.00001621,-0.00084295,-0.00012618,0.00019074,-0.00036417,-0.00
 008392,0.00005582,-0.00229863,-0.00114213,0.00112513,-0.00005045,0.000
 06240,0.00009678,0.00000527,-0.00001898,-0.00004551,0.00004803,-0.0000
 4695,-0.00003856,0.10082134,0.06081199,0.13094756,-0.01004542,-0.00211
 754,-0.00045739,0.00026312,-0.00046728,0.00011348,0.00066660,0.0006060
 6,0.00000072,-0.00194635,-0.00047420,-0.00008162,-0.00098459,0.0009496
 4,-0.00011336,-0.00022188,0.00030670,-0.00001803,0.00026267,0.00006057
 ,0.00001091,-0.00008262,0.00001260,0.00001738,0.00005556,-0.00008089,0
 .00007563,0.00003230,-0.00004925,-0.00009144,0.00260199,0.00081611,0.0
 0010941,0.00120719,0.00034900,0.00004609,0.00375215,-0.00027511,0.0003
 0185,0.00025104,-0.00015848,-0.00001927,-0.00007327,0.00004111,0.00003
 495,-0.00020237,0.00012097,-0.00001604,-0.01248025,0.02478304,-0.00757
 341,0.02282967,-0.01128329,0.00178073,-0.00052254,-0.00009948,-0.00046
 332,-0.00006629,0.00030322,-0.00025780,0.00001311,-0.00271056,0.001105
 33,-0.00012062,0.00170009,0.00060857,0.00013582,-0.00011881,0.00016838
 ,-0.00000186,0.00035876,0.00004748,0.00001804,-0.00009404,0.00000279,0
 .00001887,-0.00001005,-0.00010107,0.00007030,-0.00001803,-0.00006108,-
 0.00007384,0.00427734,-0.00004267,0.00019539,0.00141617,0.00009622,0.0
 0004881,0.00925500,-0.00085912,0.00020516,0.00013422,-0.00016936,-0.00
 003979,-0.00004209,0.00003951,0.00003210,-0.00015207,0.00015915,0.0000
 0250,-0.01024591,-0.18644170,-0.04233323,0.00521773,0.21150999,-0.0006
 8922,0.00021892,0.00072771,-0.00004065,-0.00008783,-0.00043184,0.00000
 944,-0.00005452,-0.00000556,-0.00019848,0.00014414,0.00014498,0.000270
 07,0.00011477,0.00044026,-0.00000216,0.00000595,0.00004022,0.00001922,
 0.00000598,0.00001005,-0.00000388,-0.00000355,0.00002093,0.00000139,-0
 .00001319,0.00003256,-0.00001359,0.00000648,0.00002333,0.00029632,-0.0
 0004870,-0.00002596,0.00008525,-0.00001088,-0.00004502,0.00112022,0.00
 048985,-0.00162189,-0.00000126,-0.00001882,-0.00004277,0.00000374,0.00
 000588,0.00001738,-0.00000423,0.00001496,0.00001982,-0.01415281,-0.005
 14294,-0.01930519,0.02013869,0.04431627,0.03434531,-0.00167739,-0.0003
 0507,-0.00020927,-0.00004914,-0.00014981,0.00018176,0.00016696,0.00015
 025,-0.00000235,-0.00054991,-0.00021011,-0.00004944,-0.00012543,0.0000
 2831,-0.00029670,-0.00006917,0.00007272,-0.00001309,0.00005420,0.00000
 833,0.00000429,-0.00002421,-0.00000488,0.00000160,0.00001299,-0.000025
 05,0.00001558,0.00000773,-0.00001739,-0.00002720,0.00065481,0.00024353
 ,0.00005223,0.00033997,0.00011837,0.00002031,0.00123564,0.00076877,0.0
 0020767,0.00009791,-0.00004145,0.00000867,-0.00003438,0.00001218,0.000
 00597,-0.00006827,0.00003009,-0.00001159,-0.07378881,-0.04142640,-0.09
 213097,-0.00588512,0.00211206,-0.00683798,0.07970191,-0.00097445,-0.00
 036666,-0.00007394,0.00017799,-0.00002870,0.00002674,0.00012723,0.0001
 2130,-0.00000462,-0.00042866,-0.00013283,-0.00001350,-0.00057017,0.000
 02421,0.00001063,-0.00005741,0.00008799,-0.00000052,0.00005471,0.00001
 138,0.00000132,-0.00002028,-0.00000410,0.00000251,-0.00000685,-0.00001
 398,0.00000821,-0.00000660,-0.00001067,-0.00001240,0.00043144,0.000124
 65,0.00001368,0.00025212,0.00007091,0.00000662,0.00026077,-0.00001551,
 0.00017059,0.00006067,-0.00005683,-0.00001417,-0.00001748,0.00001655,0
 .00001159,-0.00005058,0.00003864,0.00000122,-0.00822721,-0.03819144,-0
 .01675512,-0.02964050,-0.02712196,-0.03994218,0.03863562,0.06544785,-0
 .00154861,-0.00026067,0.00015382,0.00044507,0.00010176,-0.00006884,0.0
 0014622,0.00015518,-0.00001943,-0.00046267,-0.00011023,0.00005286,-0.0
 0083916,-0.00004421,0.00000973,-0.00005679,0.00007429,0.00001771,0.000
 05866,0.00001191,-0.00001691,-0.00001906,0.00000178,0.00001763,0.00001
 071,-0.00001691,0.00003646,-0.00000178,-0.00000676,-0.00000394,0.00061
 306,0.00017170,-0.00006912,0.00028659,0.00008679,-0.00001511,0.0013169
 2,0.00068483,-0.00019863,0.00005428,-0.00004215,-0.00004129,-0.0000120
 2,0.00001212,0.00002368,-0.00004507,0.00003181,0.00001319,-0.08654809,
 -0.05551682,-0.11192781,-0.01247848,-0.00189788,-0.01434382,0.09908015
 ,0.05656354,0.12637978\\-0.00001039,0.00001423,-0.00001557,0.00000276,
 -0.00002972,0.00000740,0.00001006,0.00002962,-0.00000268,-0.00000672,-
 0.00001106,-0.00000900,-0.00000025,0.00000871,-0.00000014,0.00000223,-
 0.00000705,0.00000309,-0.00000423,-0.00000370,-0.00001832,0.00000084,0
 .00000214,-0.00000105,0.00000186,-0.00000026,0.00000174,0.00000246,-0.
 00000015,0.00000249,-0.00000565,0.00000183,0.00001890,0.00000857,-0.00
 000658,0.00000632,0.00000559,-0.00000086,0.00001098,-0.00001347,0.0000
 0887,0.00001080,0.00001110,-0.00000490,-0.00001106,-0.00000741,0.00000
 158,-0.00000133,0.00001578,0.00001129,0.00002078,0.00000401,-0.0000061
 6,-0.00000364,-0.00001714,-0.00000782,-0.00001972\\\@


 WHEN HAVING A MEETING OF THE MINDS,
 MAKE SURE YOU HAVE THE EQUIPMENT FOR IT.
 Job cpu time:       0 days  0 hours  0 minutes 15.8 seconds.
 File lengths (MBytes):  RWF=     67 Int=      0 D2E=      0 Chk=      8 Scr=      1
 Normal termination of Gaussian 09 at Wed Aug  5 12:14:49 2020.
