 Entering Gaussian System, Link 0=g09
 Input=PM6_2H2O_diene_pm6_cpcmtoluene_1.com
 Output=PM6_2H2O_diene_pm6_cpcmtoluene_1.log
 Initial command:
 /apps/applications/gaussian/G09.D01/2/default/g09/l1.exe "/local/688586.1.40core-192G.q/Gau-156477.inp" -scrdir="/local/688586.1.40core-192G.q/"
 Entering Link 1 = /apps/applications/gaussian/G09.D01/2/default/g09/l1.exe PID=    156478.
  
 Copyright (c) 1988,1990,1992,1993,1995,1998,2003,2009,2013,
            Gaussian, Inc.  All Rights Reserved.
  
 This is part of the Gaussian(R) 09 program.  It is based on
 the Gaussian(R) 03 system (copyright 2003, Gaussian, Inc.),
 the Gaussian(R) 98 system (copyright 1998, Gaussian, Inc.),
 the Gaussian(R) 94 system (copyright 1995, Gaussian, Inc.),
 the Gaussian 92(TM) system (copyright 1992, Gaussian, Inc.),
 the Gaussian 90(TM) system (copyright 1990, Gaussian, Inc.),
 the Gaussian 88(TM) system (copyright 1988, Gaussian, Inc.),
 the Gaussian 86(TM) system (copyright 1986, Carnegie Mellon
 University), and the Gaussian 82(TM) system (copyright 1983,
 Carnegie Mellon University). Gaussian is a federally registered
 trademark of Gaussian, Inc.
  
 This software contains proprietary and confidential information,
 including trade secrets, belonging to Gaussian, Inc.
  
 This software is provided under written license and may be
 used, copied, transmitted, or stored only in accord with that
 written license.
  
 The following legend is applicable only to US Government
 contracts under FAR:
  
                    RESTRICTED RIGHTS LEGEND
  
 Use, reproduction and disclosure by the US Government is
 subject to restrictions as set forth in subparagraphs (a)
 and (c) of the Commercial Computer Software - Restricted
 Rights clause in FAR 52.227-19.
  
 Gaussian, Inc.
 340 Quinnipiac St., Bldg. 40, Wallingford CT 06492
  
  
 ---------------------------------------------------------------
 Warning -- This program may not be used in any manner that
 competes with the business of Gaussian, Inc. or will provide
 assistance to any competitor of Gaussian, Inc.  The licensee
 of this program is prohibited from giving any competitor of
 Gaussian, Inc. access to this program.  By using this program,
 the user acknowledges that Gaussian, Inc. is engaged in the
 business of creating and licensing software in the field of
 computational chemistry and represents and warrants to the
 licensee that it is not a competitor of Gaussian, Inc. and that
 it will not use this program in any manner prohibited above.
 ---------------------------------------------------------------
  

 Cite this work as:
 Gaussian 09, Revision D.01,
 M. J. Frisch, G. W. Trucks, H. B. Schlegel, G. E. Scuseria, 
 M. A. Robb, J. R. Cheeseman, G. Scalmani, V. Barone, B. Mennucci, 
 G. A. Petersson, H. Nakatsuji, M. Caricato, X. Li, H. P. Hratchian, 
 A. F. Izmaylov, J. Bloino, G. Zheng, J. L. Sonnenberg, M. Hada, 
 M. Ehara, K. Toyota, R. Fukuda, J. Hasegawa, M. Ishida, T. Nakajima, 
 Y. Honda, O. Kitao, H. Nakai, T. Vreven, J. A. Montgomery, Jr., 
 J. E. Peralta, F. Ogliaro, M. Bearpark, J. J. Heyd, E. Brothers, 
 K. N. Kudin, V. N. Staroverov, T. Keith, R. Kobayashi, J. Normand, 
 K. Raghavachari, A. Rendell, J. C. Burant, S. S. Iyengar, J. Tomasi, 
 M. Cossi, N. Rega, J. M. Millam, M. Klene, J. E. Knox, J. B. Cross, 
 V. Bakken, C. Adamo, J. Jaramillo, R. Gomperts, R. E. Stratmann, 
 O. Yazyev, A. J. Austin, R. Cammi, C. Pomelli, J. W. Ochterski, 
 R. L. Martin, K. Morokuma, V. G. Zakrzewski, G. A. Voth, 
 P. Salvador, J. J. Dannenberg, S. Dapprich, A. D. Daniels, 
 O. Farkas, J. B. Foresman, J. V. Ortiz, J. Cioslowski, 
 and D. J. Fox, Gaussian, Inc., Wallingford CT, 2013.
 
 ******************************************
 Gaussian 09:  ES64L-G09RevD.01 24-Apr-2013
                 5-Aug-2020 
 ******************************************
 %nprocshared=4
 Will use up to    4 processors via shared memory.
 %chk=PM6_2H2O_diene_pm6_cpcmtoluene_1.chk
 ----------------------------------------------------------------------
 # opt freq pm6 scrf=(cpcm,solvent=toluene) geom=connectivity empirical
 dispersion=gd3
 ----------------------------------------------------------------------
 1/14=-1,18=20,19=15,26=1,38=1,57=2/1,3;
 2/9=110,12=2,17=6,18=5,40=1/2;
 3/5=2,16=1,25=1,41=3900000,70=2101,71=1,72=13,124=31/1,2,3;
 4/35=1/1;
 5/5=2,35=1,38=5,53=13/2;
 6/7=2,8=2,9=2,10=2,28=1/1;
 7//1,2,3,16;
 1/14=-1,18=20,19=15,26=1/3(2);
 2/9=110/2;
 99//99;
 2/9=110/2;
 3/5=2,16=1,25=1,41=3900000,70=2105,71=1,72=13,124=31,135=20/1,2,3;
 4/5=5,16=3,35=1/1;
 5/5=2,35=1,38=5,53=13/2;
 7//1,2,3,16;
 1/14=-1,18=20,19=15,26=1/3(-5);
 2/9=110/2;
 6/7=2,8=2,9=2,10=2,19=2,28=1/1;
 99/9=1/99;
 -------------------
 Title Card Required
 -------------------
 Symbolic Z-matrix:
 Charge =  0 Multiplicity = 1
 C                     2.55892  -0.59435  -0.3305 
 H                     2.84627  -1.45295  -0.94318 
 C                     1.11455  -0.37387  -0.23877 
 H                     0.50812  -1.28837  -0.21303 
 C                     3.47704   0.15928   0.29073 
 H                     3.19364   1.00753   0.91818 
 C                     4.94268  -0.08744   0.20052 
 H                     5.37097  -0.29748   1.1922 
 H                     5.20223  -0.93583  -0.44703 
 H                     5.46936   0.7933   -0.1962 
 C                     0.53462   0.83221  -0.20262 
 H                     1.11011   1.75967  -0.24124 
 C                    -0.94111   1.05523  -0.1182 
 H                    -1.33409   1.53716  -1.03367 
 H                    -1.21538   1.6421    0.77892 
 C                    -2.92793  -0.40278   0.08946 
 C                    -3.78848   0.80822   0.06925 
 H                    -3.68734   1.38379  -0.86421 
 H                    -4.85551   0.53619   0.1534 
 H                    -3.57541   1.49326   0.90467 
 O                    -1.55755  -0.26628  -0.00029 
 O                    -3.29928  -1.55338   0.17928 
 O                    -5.75902  -3.11133   0.41925 
 H                    -4.85502  -2.7883    0.41305 
 H                    -6.36479  -2.36767   0.45953 
 O                    -0.94654  -3.04056   0.09083 
 H                    -0.53424  -3.39201   0.88335 
 H                    -1.44209  -2.24857   0.31167 
 
 Add virtual bond connecting atoms H28        and O21        Dist= 3.80D+00.
 Add virtual bond connecting atoms H28        and O22        Dist= 3.76D+00.
 Add virtual bond connecting atoms H24        and O22        Dist= 3.78D+00.

 GradGradGradGradGradGradGradGradGradGradGradGradGradGradGradGradGradGrad
 Berny optimization.
 Initialization pass.
                           ----------------------------
                           !    Initial Parameters    !
                           ! (Angstroms and Degrees)  !
 --------------------------                            --------------------------
 ! Name  Definition              Value          Derivative Info.                !
 --------------------------------------------------------------------------------
 ! R1    R(1,2)                  1.0932         estimate D2E/DX2                !
 ! R2    R(1,3)                  1.464          estimate D2E/DX2                !
 ! R3    R(1,5)                  1.3404         estimate D2E/DX2                !
 ! R4    R(3,4)                  1.0976         estimate D2E/DX2                !
 ! R5    R(3,11)                 1.3388         estimate D2E/DX2                !
 ! R6    R(5,6)                  1.0925         estimate D2E/DX2                !
 ! R7    R(5,7)                  1.489          estimate D2E/DX2                !
 ! R8    R(7,8)                  1.1004         estimate D2E/DX2                !
 ! R9    R(7,9)                  1.0984         estimate D2E/DX2                !
 ! R10   R(7,10)                 1.1002         estimate D2E/DX2                !
 ! R11   R(11,12)                1.0922         estimate D2E/DX2                !
 ! R12   R(11,13)                1.4949         estimate D2E/DX2                !
 ! R13   R(13,14)                1.1067         estimate D2E/DX2                !
 ! R14   R(13,15)                1.1066         estimate D2E/DX2                !
 ! R15   R(13,21)                1.463          estimate D2E/DX2                !
 ! R16   R(16,17)                1.4858         estimate D2E/DX2                !
 ! R17   R(16,21)                1.3801         estimate D2E/DX2                !
 ! R18   R(16,22)                1.2124         estimate D2E/DX2                !
 ! R19   R(17,18)                1.1013         estimate D2E/DX2                !
 ! R20   R(17,19)                1.1044         estimate D2E/DX2                !
 ! R21   R(17,20)                1.1012         estimate D2E/DX2                !
 ! R22   R(21,28)                2.01           estimate D2E/DX2                !
 ! R23   R(22,24)                2.0            estimate D2E/DX2                !
 ! R24   R(22,28)                1.9875         estimate D2E/DX2                !
 ! R25   R(23,24)                0.96           estimate D2E/DX2                !
 ! R26   R(23,25)                0.96           estimate D2E/DX2                !
 ! R27   R(26,27)                0.96           estimate D2E/DX2                !
 ! R28   R(26,28)                0.96           estimate D2E/DX2                !
 ! A1    A(2,1,3)              114.3759         estimate D2E/DX2                !
 ! A2    A(2,1,5)              121.4166         estimate D2E/DX2                !
 ! A3    A(3,1,5)              124.1974         estimate D2E/DX2                !
 ! A4    A(1,3,4)              114.9044         estimate D2E/DX2                !
 ! A5    A(1,3,11)             124.3854         estimate D2E/DX2                !
 ! A6    A(4,3,11)             120.7057         estimate D2E/DX2                !
 ! A7    A(1,5,6)              121.6698         estimate D2E/DX2                !
 ! A8    A(1,5,7)              123.5697         estimate D2E/DX2                !
 ! A9    A(6,5,7)              114.7579         estimate D2E/DX2                !
 ! A10   A(5,7,8)              111.108          estimate D2E/DX2                !
 ! A11   A(5,7,9)              113.3467         estimate D2E/DX2                !
 ! A12   A(5,7,10)             111.1248         estimate D2E/DX2                !
 ! A13   A(8,7,9)              106.9711         estimate D2E/DX2                !
 ! A14   A(8,7,10)             106.9429         estimate D2E/DX2                !
 ! A15   A(9,7,10)             107.0144         estimate D2E/DX2                !
 ! A16   A(3,11,12)            122.399          estimate D2E/DX2                !
 ! A17   A(3,11,13)            124.3034         estimate D2E/DX2                !
 ! A18   A(12,11,13)           113.2958         estimate D2E/DX2                !
 ! A19   A(11,13,14)           111.6417         estimate D2E/DX2                !
 ! A20   A(11,13,15)           111.6902         estimate D2E/DX2                !
 ! A21   A(11,13,21)           106.6035         estimate D2E/DX2                !
 ! A22   A(14,13,15)           110.5901         estimate D2E/DX2                !
 ! A23   A(14,13,21)           108.0843         estimate D2E/DX2                !
 ! A24   A(15,13,21)           108.0168         estimate D2E/DX2                !
 ! A25   A(17,16,21)           119.5793         estimate D2E/DX2                !
 ! A26   A(17,16,22)           126.6652         estimate D2E/DX2                !
 ! A27   A(21,16,22)           113.7555         estimate D2E/DX2                !
 ! A28   A(16,17,18)           112.6011         estimate D2E/DX2                !
 ! A29   A(16,17,19)           110.9658         estimate D2E/DX2                !
 ! A30   A(16,17,20)           112.6231         estimate D2E/DX2                !
 ! A31   A(18,17,19)           106.3826         estimate D2E/DX2                !
 ! A32   A(18,17,20)           107.4664         estimate D2E/DX2                !
 ! A33   A(19,17,20)           106.4019         estimate D2E/DX2                !
 ! A34   A(13,21,16)           120.8624         estimate D2E/DX2                !
 ! A35   A(13,21,28)           151.5409         estimate D2E/DX2                !
 ! A36   A(16,21,28)            87.0997         estimate D2E/DX2                !
 ! A37   A(16,22,24)           146.4            estimate D2E/DX2                !
 ! A38   A(16,22,28)            92.9045         estimate D2E/DX2                !
 ! A39   A(24,22,28)           120.2068         estimate D2E/DX2                !
 ! A40   A(24,23,25)           109.5            estimate D2E/DX2                !
 ! A41   A(22,24,23)           160.223          estimate D2E/DX2                !
 ! A42   A(27,26,28)           109.5            estimate D2E/DX2                !
 ! A43   A(21,28,22)            65.8593         estimate D2E/DX2                !
 ! A44   A(21,28,26)           143.8589         estimate D2E/DX2                !
 ! A45   A(22,28,26)           139.0789         estimate D2E/DX2                !
 ! D1    D(2,1,3,4)             35.832          estimate D2E/DX2                !
 ! D2    D(2,1,3,11)          -143.3984         estimate D2E/DX2                !
 ! D3    D(5,1,3,4)           -143.0227         estimate D2E/DX2                !
 ! D4    D(5,1,3,11)            37.7469         estimate D2E/DX2                !
 ! D5    D(2,1,5,6)           -178.9044         estimate D2E/DX2                !
 ! D6    D(2,1,5,7)              0.4741         estimate D2E/DX2                !
 ! D7    D(3,1,5,6)             -0.1268         estimate D2E/DX2                !
 ! D8    D(3,1,5,7)            179.2517         estimate D2E/DX2                !
 ! D9    D(1,3,11,12)            0.0899         estimate D2E/DX2                !
 ! D10   D(1,3,11,13)          179.5687         estimate D2E/DX2                !
 ! D11   D(4,3,11,12)         -179.0982         estimate D2E/DX2                !
 ! D12   D(4,3,11,13)            0.3806         estimate D2E/DX2                !
 ! D13   D(1,5,7,8)           -119.0783         estimate D2E/DX2                !
 ! D14   D(1,5,7,9)              1.413          estimate D2E/DX2                !
 ! D15   D(1,5,7,10)           121.9728         estimate D2E/DX2                !
 ! D16   D(6,5,7,8)             60.3393         estimate D2E/DX2                !
 ! D17   D(6,5,7,9)           -179.1694         estimate D2E/DX2                !
 ! D18   D(6,5,7,10)           -58.6097         estimate D2E/DX2                !
 ! D19   D(3,11,13,14)        -114.2983         estimate D2E/DX2                !
 ! D20   D(3,11,13,15)         121.2998         estimate D2E/DX2                !
 ! D21   D(3,11,13,21)           3.5282         estimate D2E/DX2                !
 ! D22   D(12,11,13,14)         65.2226         estimate D2E/DX2                !
 ! D23   D(12,11,13,15)        -59.1794         estimate D2E/DX2                !
 ! D24   D(12,11,13,21)       -176.9509         estimate D2E/DX2                !
 ! D25   D(11,13,21,16)       -179.58           estimate D2E/DX2                !
 ! D26   D(11,13,21,28)         12.2349         estimate D2E/DX2                !
 ! D27   D(14,13,21,16)        -59.4333         estimate D2E/DX2                !
 ! D28   D(14,13,21,28)        132.3816         estimate D2E/DX2                !
 ! D29   D(15,13,21,16)         60.2521         estimate D2E/DX2                !
 ! D30   D(15,13,21,28)       -107.933          estimate D2E/DX2                !
 ! D31   D(21,16,17,18)         61.1254         estimate D2E/DX2                !
 ! D32   D(21,16,17,19)       -179.7517         estimate D2E/DX2                !
 ! D33   D(21,16,17,20)        -60.5895         estimate D2E/DX2                !
 ! D34   D(22,16,17,18)       -118.8598         estimate D2E/DX2                !
 ! D35   D(22,16,17,19)          0.2631         estimate D2E/DX2                !
 ! D36   D(22,16,17,20)        119.4253         estimate D2E/DX2                !
 ! D37   D(17,16,21,13)         -0.1428         estimate D2E/DX2                !
 ! D38   D(17,16,21,28)        174.2508         estimate D2E/DX2                !
 ! D39   D(22,16,21,13)        179.8443         estimate D2E/DX2                !
 ! D40   D(22,16,21,28)         -5.7622         estimate D2E/DX2                !
 ! D41   D(17,16,22,24)         -3.5431         estimate D2E/DX2                !
 ! D42   D(17,16,22,28)       -174.1863         estimate D2E/DX2                !
 ! D43   D(21,16,22,24)        176.4709         estimate D2E/DX2                !
 ! D44   D(21,16,22,28)          5.8278         estimate D2E/DX2                !
 ! D45   D(13,21,28,22)        173.3859         estimate D2E/DX2                !
 ! D46   D(13,21,28,26)        -44.4008         estimate D2E/DX2                !
 ! D47   D(16,21,28,22)          3.5218         estimate D2E/DX2                !
 ! D48   D(16,21,28,26)        145.7351         estimate D2E/DX2                !
 ! D49   D(16,22,24,23)         20.3728         estimate D2E/DX2                !
 ! D50   D(28,22,24,23)       -170.4567         estimate D2E/DX2                !
 ! D51   D(16,22,28,21)         -4.0097         estimate D2E/DX2                !
 ! D52   D(16,22,28,26)       -150.5265         estimate D2E/DX2                !
 ! D53   D(24,22,28,21)       -178.0339         estimate D2E/DX2                !
 ! D54   D(24,22,28,26)         35.4493         estimate D2E/DX2                !
 ! D55   D(25,23,24,22)        -21.5384         estimate D2E/DX2                !
 ! D56   D(27,26,28,21)        116.0642         estimate D2E/DX2                !
 ! D57   D(27,26,28,22)       -122.5435         estimate D2E/DX2                !
 --------------------------------------------------------------------------------
 Trust Radius=3.00D-01 FncErr=1.00D-07 GrdErr=1.00D-07
 Number of steps in this run=    140 maximum allowed number of steps=    168.
 GradGradGradGradGradGradGradGradGradGradGradGradGradGradGradGradGradGrad

                          Input orientation:                          
 ---------------------------------------------------------------------
 Center     Atomic      Atomic             Coordinates (Angstroms)
 Number     Number       Type             X           Y           Z
 ---------------------------------------------------------------------
      1          6           0        2.558923   -0.594345   -0.330502
      2          1           0        2.846274   -1.452949   -0.943183
      3          6           0        1.114552   -0.373872   -0.238765
      4          1           0        0.508115   -1.288366   -0.213032
      5          6           0        3.477035    0.159280    0.290725
      6          1           0        3.193636    1.007526    0.918175
      7          6           0        4.942676   -0.087443    0.200520
      8          1           0        5.370969   -0.297480    1.192203
      9          1           0        5.202225   -0.935827   -0.447031
     10          1           0        5.469363    0.793301   -0.196199
     11          6           0        0.534615    0.832205   -0.202615
     12          1           0        1.110106    1.759665   -0.241237
     13          6           0       -0.941113    1.055226   -0.118200
     14          1           0       -1.334093    1.537162   -1.033671
     15          1           0       -1.215378    1.642096    0.778922
     16          6           0       -2.927929   -0.402781    0.089459
     17          6           0       -3.788479    0.808220    0.069252
     18          1           0       -3.687338    1.383788   -0.864214
     19          1           0       -4.855514    0.536191    0.153403
     20          1           0       -3.575412    1.493264    0.904674
     21          8           0       -1.557545   -0.266283   -0.000287
     22          8           0       -3.299284   -1.553381    0.179280
     23          8           0       -5.759023   -3.111330    0.419246
     24          1           0       -4.855025   -2.788298    0.413053
     25          1           0       -6.364789   -2.367674    0.459527
     26          8           0       -0.946542   -3.040564    0.090829
     27          1           0       -0.534242   -3.392013    0.883352
     28          1           0       -1.442091   -2.248567    0.311674
 ---------------------------------------------------------------------
                    Distance matrix (angstroms):
                    1          2          3          4          5
     1  C    0.000000
     2  H    1.093229   0.000000
     3  C    1.463978   2.158581   0.000000
     4  H    2.168243   2.455035   1.097601   0.000000
     5  C    1.340449   2.125952   2.479100   3.341248   0.000000
     6  H    2.127920   3.104714   2.751247   3.709821   1.092488
     7  C    2.494236   2.750921   3.863877   4.612870   1.488997
     8  H    3.211598   3.502723   4.491168   5.157896   2.146690
     9  H    2.667815   2.462537   4.131372   4.713142   2.172516
    10  H    3.227113   3.533302   4.508712   5.380298   2.146730
    11  C    2.479763   3.333787   1.338751   2.120762   3.058439
    12  H    2.765574   3.718588   2.133543   3.107037   2.906298
    13  C    3.875101   4.616908   2.506515   2.757114   4.526585
    14  H    4.493700   5.140469   3.206211   3.471424   5.176827
    15  H    4.525245   5.389060   3.244748   3.541470   4.945283
    16  C    5.506234   5.959079   4.055887   3.561202   6.432728
    17  C    6.512795   7.082221   5.052913   4.789162   7.297799
    18  H    6.573708   7.123300   5.151573   5.016600   7.359453
    19  H    7.515727   8.029740   6.051752   5.677306   8.342199
    20  H    6.596502   7.302931   5.175849   5.065760   7.203711
    21  O    4.142701   4.657344   2.684874   2.314490   5.060908
    22  O    5.958038   6.248031   4.587805   3.836721   6.990288
    23  O    8.722704   8.868910   7.427832   6.557438   9.798886
    24  H    7.767427   7.933003   6.472262   5.604021   8.838914
    25  H    9.132441   9.362051   7.771963   6.989568  10.162455
    26  O    4.295322   4.239712   3.386442   2.297511   5.463240
    27  H    4.343738   4.303962   3.617574   2.591119   5.390105
    28  H    4.376865   4.538474   3.217746   2.236203   5.476857
                    6          7          8          9         10
     6  H    0.000000
     7  C    2.184749   0.000000
     8  H    2.553216   1.100448   0.000000
     9  H    3.110440   1.098382   1.767215   0.000000
    10  H    2.542962   1.100225   1.768373   1.767530   0.000000
    11  C    2.890900   4.520981   5.158684   4.997225   4.934906
    12  H    2.500209   4.277330   4.943840   4.904433   4.465312
    13  C    4.262921   6.002187   6.587059   6.466299   6.416299
    14  H    4.958886   6.600030   7.299197   7.013079   6.895049
    15  H    4.456621   6.422420   6.878424   7.023836   6.808603
    16  C    6.336347   7.877702   8.372505   8.165253   8.486856
    17  C    7.036357   8.777956   9.294035   9.172841   9.261659
    18  H    7.118025   8.819032   9.439727   9.196683   9.200005
    19  H    8.099126   9.818129  10.312859  10.182606  10.333993
    20  H    6.786467   8.692082   9.128372   9.207307   9.138371
    21  O    5.003987   6.505781   7.030456   6.807522   7.109046
    22  O    7.018705   8.371340   8.819104   8.546888   9.084992
    23  O    9.867320  11.122863  11.506169  11.208577  11.903847
    24  H    8.913157  10.165369  10.553777  10.262537  10.944954
    25  H   10.147208  11.537994  11.939453  11.690503  12.266577
    26  O    5.849155   6.589070   6.974846   6.521238   7.479622
    27  H    5.766648   6.432968   6.674057   6.380425   7.397672
    28  H    5.697363   6.741518   7.141418   6.815119   7.568295
                   11         12         13         14         15
    11  C    0.000000
    12  H    1.092183   0.000000
    13  C    1.494870   2.172296   0.000000
    14  H    2.163259   2.579063   1.106699   0.000000
    15  H    2.163750   2.542130   1.106556   1.819505   0.000000
    16  C    3.687778   4.592522   2.473124   2.750475   2.754943
    17  C    4.331700   4.999779   2.864200   2.787796   2.796396
    18  H    4.308926   4.852304   2.864654   2.364318   2.979464
    19  H    5.409978   6.102561   3.957992   3.848570   3.855501
    20  H    4.307599   4.830959   2.859664   2.963548   2.368064
    21  O    2.371655   3.358405   1.462969   2.090509   2.089535
    22  O    4.531627   5.531350   3.529064   3.858067   3.861775
    23  O    7.453057   8.446760   6.392284   6.580232   6.585525
    24  H    6.521910   7.529598   5.511226   5.761907   5.745370
    25  H    7.634097   8.567384   6.439432   6.541047   6.534272
    26  O    4.156715   5.232807   4.101124   4.729722   4.740575
    27  H    4.490634   5.523438   4.576744   5.348972   5.081054
    28  H    3.696352   4.783863   3.369098   4.019125   3.925173
                   16         17         18         19         20
    16  C    0.000000
    17  C    1.485758   0.000000
    18  H    2.162874   1.101302   0.000000
    19  H    2.145074   1.104375   1.765956   0.000000
    20  H    2.163053   1.101187   1.775803   1.766085   0.000000
    21  O    1.380086   2.477188   2.829332   3.397673   2.826083
    22  O    1.212375   2.414245   3.141087   2.605539   3.143961
    23  O    3.931932   4.400956   5.113241   3.767149   5.119188
    24  H    3.083683   3.767049   4.516769   3.334613   4.495651
    25  H    3.976150   4.108040   4.795259   3.286953   4.783892
    26  O    3.299060   4.784371   5.291404   5.298788   5.303668
    27  H    3.910948   5.375386   5.983667   5.885321   5.754572
    28  H    2.379921   3.861121   4.429204   4.408105   4.347874
                   21         22         23         24         25
    21  O    0.000000
    22  O    2.173136   0.000000
    23  O    5.091436   2.921490   0.000000
    24  H    4.171904   2.000000   0.960000   0.000000
    25  H    5.266581   3.184169   0.960000   1.567952   0.000000
    26  O    2.842228   2.784768   4.824193   3.929848   5.472305
    27  H    3.405606   3.394369   5.252857   4.388031   5.934996
    28  H    2.010000   1.987455   4.403616   3.456835   4.926359
                   26         27         28
    26  O    0.000000
    27  H    0.960000   0.000000
    28  H    0.960000   1.567952   0.000000
 Stoichiometry    C8H16O4
 Framework group  C1[X(C8H16O4)]
 Deg. of freedom    78
 Full point group                 C1      NOp   1
 Largest Abelian subgroup         C1      NOp   1
 Largest concise Abelian subgroup C1      NOp   1
                         Standard orientation:                         
 ---------------------------------------------------------------------
 Center     Atomic      Atomic             Coordinates (Angstroms)
 Number     Number       Type             X           Y           Z
 ---------------------------------------------------------------------
      1          6           0        3.207450   -0.582460   -0.354701
      2          1           0        3.336882   -1.439728   -1.020652
      3          6           0        1.831881   -0.089581   -0.264644
      4          1           0        1.058509   -0.867258   -0.307566
      5          6           0        4.239382   -0.064664    0.326332
      6          1           0        4.111449    0.780749    1.006362
      7          6           0        5.630658   -0.587495    0.236272
      8          1           0        5.985616   -0.940395    1.216298
      9          1           0        5.735667   -1.427083   -0.464092
     10          1           0        6.328273    0.196521   -0.094103
     11          6           0        1.497237    1.201917   -0.153729
     12          1           0        2.243102    1.999170   -0.123141
     13          6           0        0.091594    1.703902   -0.071159
     14          1           0       -0.177635    2.311067   -0.956399
     15          1           0       -0.084841    2.274507    0.860370
     16          6           0       -2.145582    0.653215    0.015107
     17          6           0       -2.753053    2.008121    0.066953
     18          1           0       -2.519099    2.611240   -0.824326
     19          1           0       -3.854359    1.945624    0.120468
     20          1           0       -2.431015    2.583251    0.949070
     21          8           0       -0.773087    0.524011   -0.049705
     22          8           0       -2.735985   -0.405661    0.022845
     23          8           0       -5.457135   -1.463546    0.129243
     24          1           0       -4.507657   -1.324184    0.155102
     25          1           0       -5.907267   -0.619743    0.212773
     26          8           0       -0.716492   -2.316246   -0.139159
     27          1           0       -0.399918   -2.791644    0.632447
     28          1           0       -1.053522   -1.458289    0.129021
 ---------------------------------------------------------------------
 Rotational constants (GHZ):      1.6601033      0.2826316      0.2445462
 Standard basis: VSTO-6G (5D, 7F)
 There are    64 symmetry adapted cartesian basis functions of A   symmetry.
 There are    64 symmetry adapted basis functions of A   symmetry.
    64 basis functions,   384 primitive gaussians,    64 cartesian basis functions
    36 alpha electrons       36 beta electrons
       nuclear repulsion energy       437.9123909440 Hartrees.
 Integral buffers will be    131072 words long.
 Regular integral format.
 Two-electron integral symmetry is turned off.
 Nuclear repulsion after empirical dispersion term =      437.9062432963 Hartrees.
 ------------------------------------------------------------------------------
 Polarizable Continuum Model (PCM)
 =================================
 Model                : C-PCM.
 Atomic radii         : UFF (Universal Force Field).
 Polarization charges : Total charges.
 Charge compensation  : None.
 Solution method      : On-the-fly selection.
 Cavity type          : Scaled VdW (van der Waals Surface) (Alpha=1.100).
 Cavity algorithm     : GePol (No added spheres)
                        Default sphere list used, NSphG=   28.
                        Lebedev-Laikov grids with approx.  5.0 points / Ang**2.
                        Smoothing algorithm: Karplus/York (Gamma=1.0000).
                        Polarization charges: spherical gaussians, with
                                              point-specific exponents (IZeta= 3).
                        Self-potential: point-specific (ISelfS= 7).
                        Self-field    : sphere-specific E.n sum rule (ISelfD= 2).
 1st derivatives      : Analytical E(r).r(x)/FMM algorithm (CHGder, D1EAlg=3).
                        Cavity 1st derivative terms included.
 Solvent              : Toluene, Eps=   2.374100 Eps(inf)=   2.238315
 ------------------------------------------------------------------------------
 Do NDO integrals.
 One-electron integrals computed using PRISM.
 NBasis=    64 RedAO= F EigKep=  0.00D+00  NBF=    64
 NBsUse=    64 1.00D-04 EigRej=  0.00D+00 NBFU=    64
 Simple Huckel Guess.
 Overlap will be assumed to be unity.
 Keep J ints in memory in canonical form, NReq=8925732.
 Requested convergence on RMS density matrix=1.00D-08 within 128 cycles.
 Requested convergence on MAX density matrix=1.00D-06.
 Requested convergence on             energy=1.00D-06.
 No special actions if energy rises.
 Inv3:  Mode=1 IEnd=    15939075.
 Iteration    1 A*A^-1 deviation from unit magnitude is 6.88D-15 for   2291.
 Iteration    1 A*A^-1 deviation from orthogonality  is 2.32D-15 for   2284   1802.
 Iteration    1 A^-1*A deviation from unit magnitude is 6.88D-15 for   2291.
 Iteration    1 A^-1*A deviation from orthogonality  is 2.30D-15 for   2271   1935.
 Error on total polarization charges = -0.00009
 SCF Done:  E(RPM6D3) = -0.310424329653     A.U. after   15 cycles
            NFock= 14  Conv=0.71D-08     -V/T= 0.9928

 **********************************************************************

            Population analysis using the SCF density.

 **********************************************************************

 Orbital symmetries:
       Occupied  (A) (A) (A) (A) (A) (A) (A) (A) (A) (A) (A) (A)
                 (A) (A) (A) (A) (A) (A) (A) (A) (A) (A) (A) (A)
                 (A) (A) (A) (A) (A) (A) (A) (A) (A) (A) (A) (A)
       Virtual   (A) (A) (A) (A) (A) (A) (A) (A) (A) (A) (A) (A)
                 (A) (A) (A) (A) (A) (A) (A) (A) (A) (A) (A) (A)
                 (A) (A) (A) (A)
 The electronic state is 1-A.
 Alpha  occ. eigenvalues --   -1.20240  -1.14181  -1.09083  -1.08735  -1.05444
 Alpha  occ. eigenvalues --   -1.01600  -1.00294  -0.94675  -0.85135  -0.80262
 Alpha  occ. eigenvalues --   -0.75654  -0.70269  -0.68796  -0.68004  -0.66063
 Alpha  occ. eigenvalues --   -0.64477  -0.61961  -0.58854  -0.57040  -0.56179
 Alpha  occ. eigenvalues --   -0.53433  -0.53122  -0.52436  -0.52378  -0.50824
 Alpha  occ. eigenvalues --   -0.50536  -0.50400  -0.48734  -0.45998  -0.45057
 Alpha  occ. eigenvalues --   -0.44044  -0.43019  -0.42595  -0.42417  -0.40791
 Alpha  occ. eigenvalues --   -0.34802
 Alpha virt. eigenvalues --    0.00610   0.00885   0.02105   0.05861   0.07988
 Alpha virt. eigenvalues --    0.11293   0.12756   0.14339   0.15261   0.16461
 Alpha virt. eigenvalues --    0.16506   0.16721   0.17200   0.17510   0.17648
 Alpha virt. eigenvalues --    0.18653   0.18783   0.19803   0.20446   0.20801
 Alpha virt. eigenvalues --    0.20876   0.21072   0.21366   0.23130   0.23362
 Alpha virt. eigenvalues --    0.24010   0.24249   0.24448
          Condensed to atoms (all electrons):
               1          2          3          4          5          6
     1  C    4.243378   0.000000   0.000000   0.000000   0.000000   0.000000
     2  H    0.000000   0.837528   0.000000   0.000000   0.000000   0.000000
     3  C    0.000000   0.000000   4.074899   0.000000   0.000000   0.000000
     4  H    0.000000   0.000000   0.000000   0.829804   0.000000   0.000000
     5  C    0.000000   0.000000   0.000000   0.000000   4.052481   0.000000
     6  H    0.000000   0.000000   0.000000   0.000000   0.000000   0.863385
     7  C    0.000000   0.000000   0.000000   0.000000   0.000000   0.000000
     8  H    0.000000   0.000000   0.000000   0.000000   0.000000   0.000000
     9  H    0.000000   0.000000   0.000000   0.000000   0.000000   0.000000
    10  H    0.000000   0.000000   0.000000   0.000000   0.000000   0.000000
    11  C    0.000000   0.000000   0.000000   0.000000   0.000000   0.000000
    12  H    0.000000   0.000000   0.000000   0.000000   0.000000   0.000000
    13  C    0.000000   0.000000   0.000000   0.000000   0.000000   0.000000
    14  H    0.000000   0.000000   0.000000   0.000000   0.000000   0.000000
    15  H    0.000000   0.000000   0.000000   0.000000   0.000000   0.000000
    16  C    0.000000   0.000000   0.000000   0.000000   0.000000   0.000000
    17  C    0.000000   0.000000   0.000000   0.000000   0.000000   0.000000
    18  H    0.000000   0.000000   0.000000   0.000000   0.000000   0.000000
    19  H    0.000000   0.000000   0.000000   0.000000   0.000000   0.000000
    20  H    0.000000   0.000000   0.000000   0.000000   0.000000   0.000000
    21  O    0.000000   0.000000   0.000000   0.000000   0.000000   0.000000
    22  O    0.000000   0.000000   0.000000   0.000000   0.000000   0.000000
    23  O    0.000000   0.000000   0.000000   0.000000   0.000000   0.000000
    24  H    0.000000   0.000000   0.000000   0.000000   0.000000   0.000000
    25  H    0.000000   0.000000   0.000000   0.000000   0.000000   0.000000
    26  O    0.000000   0.000000   0.000000   0.000000   0.000000   0.000000
    27  H    0.000000   0.000000   0.000000   0.000000   0.000000   0.000000
    28  H    0.000000   0.000000   0.000000   0.000000   0.000000   0.000000
               7          8          9         10         11         12
     1  C    0.000000   0.000000   0.000000   0.000000   0.000000   0.000000
     2  H    0.000000   0.000000   0.000000   0.000000   0.000000   0.000000
     3  C    0.000000   0.000000   0.000000   0.000000   0.000000   0.000000
     4  H    0.000000   0.000000   0.000000   0.000000   0.000000   0.000000
     5  C    0.000000   0.000000   0.000000   0.000000   0.000000   0.000000
     6  H    0.000000   0.000000   0.000000   0.000000   0.000000   0.000000
     7  C    4.490924   0.000000   0.000000   0.000000   0.000000   0.000000
     8  H    0.000000   0.832097   0.000000   0.000000   0.000000   0.000000
     9  H    0.000000   0.000000   0.835972   0.000000   0.000000   0.000000
    10  H    0.000000   0.000000   0.000000   0.832688   0.000000   0.000000
    11  C    0.000000   0.000000   0.000000   0.000000   4.253611   0.000000
    12  H    0.000000   0.000000   0.000000   0.000000   0.000000   0.832912
    13  C    0.000000   0.000000   0.000000   0.000000   0.000000   0.000000
    14  H    0.000000   0.000000   0.000000   0.000000   0.000000   0.000000
    15  H    0.000000   0.000000   0.000000   0.000000   0.000000   0.000000
    16  C    0.000000   0.000000   0.000000   0.000000   0.000000   0.000000
    17  C    0.000000   0.000000   0.000000   0.000000   0.000000   0.000000
    18  H    0.000000   0.000000   0.000000   0.000000   0.000000   0.000000
    19  H    0.000000   0.000000   0.000000   0.000000   0.000000   0.000000
    20  H    0.000000   0.000000   0.000000   0.000000   0.000000   0.000000
    21  O    0.000000   0.000000   0.000000   0.000000   0.000000   0.000000
    22  O    0.000000   0.000000   0.000000   0.000000   0.000000   0.000000
    23  O    0.000000   0.000000   0.000000   0.000000   0.000000   0.000000
    24  H    0.000000   0.000000   0.000000   0.000000   0.000000   0.000000
    25  H    0.000000   0.000000   0.000000   0.000000   0.000000   0.000000
    26  O    0.000000   0.000000   0.000000   0.000000   0.000000   0.000000
    27  H    0.000000   0.000000   0.000000   0.000000   0.000000   0.000000
    28  H    0.000000   0.000000   0.000000   0.000000   0.000000   0.000000
              13         14         15         16         17         18
     1  C    0.000000   0.000000   0.000000   0.000000   0.000000   0.000000
     2  H    0.000000   0.000000   0.000000   0.000000   0.000000   0.000000
     3  C    0.000000   0.000000   0.000000   0.000000   0.000000   0.000000
     4  H    0.000000   0.000000   0.000000   0.000000   0.000000   0.000000
     5  C    0.000000   0.000000   0.000000   0.000000   0.000000   0.000000
     6  H    0.000000   0.000000   0.000000   0.000000   0.000000   0.000000
     7  C    0.000000   0.000000   0.000000   0.000000   0.000000   0.000000
     8  H    0.000000   0.000000   0.000000   0.000000   0.000000   0.000000
     9  H    0.000000   0.000000   0.000000   0.000000   0.000000   0.000000
    10  H    0.000000   0.000000   0.000000   0.000000   0.000000   0.000000
    11  C    0.000000   0.000000   0.000000   0.000000   0.000000   0.000000
    12  H    0.000000   0.000000   0.000000   0.000000   0.000000   0.000000
    13  C    3.976618   0.000000   0.000000   0.000000   0.000000   0.000000
    14  H    0.000000   0.859178   0.000000   0.000000   0.000000   0.000000
    15  H    0.000000   0.000000   0.861271   0.000000   0.000000   0.000000
    16  C    0.000000   0.000000   0.000000   3.296723   0.000000   0.000000
    17  C    0.000000   0.000000   0.000000   0.000000   4.638153   0.000000
    18  H    0.000000   0.000000   0.000000   0.000000   0.000000   0.785212
    19  H    0.000000   0.000000   0.000000   0.000000   0.000000   0.000000
    20  H    0.000000   0.000000   0.000000   0.000000   0.000000   0.000000
    21  O    0.000000   0.000000   0.000000   0.000000   0.000000   0.000000
    22  O    0.000000   0.000000   0.000000   0.000000   0.000000   0.000000
    23  O    0.000000   0.000000   0.000000   0.000000   0.000000   0.000000
    24  H    0.000000   0.000000   0.000000   0.000000   0.000000   0.000000
    25  H    0.000000   0.000000   0.000000   0.000000   0.000000   0.000000
    26  O    0.000000   0.000000   0.000000   0.000000   0.000000   0.000000
    27  H    0.000000   0.000000   0.000000   0.000000   0.000000   0.000000
    28  H    0.000000   0.000000   0.000000   0.000000   0.000000   0.000000
              19         20         21         22         23         24
     1  C    0.000000   0.000000   0.000000   0.000000   0.000000   0.000000
     2  H    0.000000   0.000000   0.000000   0.000000   0.000000   0.000000
     3  C    0.000000   0.000000   0.000000   0.000000   0.000000   0.000000
     4  H    0.000000   0.000000   0.000000   0.000000   0.000000   0.000000
     5  C    0.000000   0.000000   0.000000   0.000000   0.000000   0.000000
     6  H    0.000000   0.000000   0.000000   0.000000   0.000000   0.000000
     7  C    0.000000   0.000000   0.000000   0.000000   0.000000   0.000000
     8  H    0.000000   0.000000   0.000000   0.000000   0.000000   0.000000
     9  H    0.000000   0.000000   0.000000   0.000000   0.000000   0.000000
    10  H    0.000000   0.000000   0.000000   0.000000   0.000000   0.000000
    11  C    0.000000   0.000000   0.000000   0.000000   0.000000   0.000000
    12  H    0.000000   0.000000   0.000000   0.000000   0.000000   0.000000
    13  C    0.000000   0.000000   0.000000   0.000000   0.000000   0.000000
    14  H    0.000000   0.000000   0.000000   0.000000   0.000000   0.000000
    15  H    0.000000   0.000000   0.000000   0.000000   0.000000   0.000000
    16  C    0.000000   0.000000   0.000000   0.000000   0.000000   0.000000
    17  C    0.000000   0.000000   0.000000   0.000000   0.000000   0.000000
    18  H    0.000000   0.000000   0.000000   0.000000   0.000000   0.000000
    19  H    0.785014   0.000000   0.000000   0.000000   0.000000   0.000000
    20  H    0.000000   0.786461   0.000000   0.000000   0.000000   0.000000
    21  O    0.000000   0.000000   6.473439   0.000000   0.000000   0.000000
    22  O    0.000000   0.000000   0.000000   6.538212   0.000000   0.000000
    23  O    0.000000   0.000000   0.000000   0.000000   6.667326   0.000000
    24  H    0.000000   0.000000   0.000000   0.000000   0.000000   0.660822
    25  H    0.000000   0.000000   0.000000   0.000000   0.000000   0.000000
    26  O    0.000000   0.000000   0.000000   0.000000   0.000000   0.000000
    27  H    0.000000   0.000000   0.000000   0.000000   0.000000   0.000000
    28  H    0.000000   0.000000   0.000000   0.000000   0.000000   0.000000
              25         26         27         28
     1  C    0.000000   0.000000   0.000000   0.000000
     2  H    0.000000   0.000000   0.000000   0.000000
     3  C    0.000000   0.000000   0.000000   0.000000
     4  H    0.000000   0.000000   0.000000   0.000000
     5  C    0.000000   0.000000   0.000000   0.000000
     6  H    0.000000   0.000000   0.000000   0.000000
     7  C    0.000000   0.000000   0.000000   0.000000
     8  H    0.000000   0.000000   0.000000   0.000000
     9  H    0.000000   0.000000   0.000000   0.000000
    10  H    0.000000   0.000000   0.000000   0.000000
    11  C    0.000000   0.000000   0.000000   0.000000
    12  H    0.000000   0.000000   0.000000   0.000000
    13  C    0.000000   0.000000   0.000000   0.000000
    14  H    0.000000   0.000000   0.000000   0.000000
    15  H    0.000000   0.000000   0.000000   0.000000
    16  C    0.000000   0.000000   0.000000   0.000000
    17  C    0.000000   0.000000   0.000000   0.000000
    18  H    0.000000   0.000000   0.000000   0.000000
    19  H    0.000000   0.000000   0.000000   0.000000
    20  H    0.000000   0.000000   0.000000   0.000000
    21  O    0.000000   0.000000   0.000000   0.000000
    22  O    0.000000   0.000000   0.000000   0.000000
    23  O    0.000000   0.000000   0.000000   0.000000
    24  H    0.000000   0.000000   0.000000   0.000000
    25  H    0.677594   0.000000   0.000000   0.000000
    26  O    0.000000   6.676960   0.000000   0.000000
    27  H    0.000000   0.000000   0.676885   0.000000
    28  H    0.000000   0.000000   0.000000   0.660451
 Mulliken charges:
               1
     1  C   -0.243378
     2  H    0.162472
     3  C   -0.074899
     4  H    0.170196
     5  C   -0.052481
     6  H    0.136615
     7  C   -0.490924
     8  H    0.167903
     9  H    0.164028
    10  H    0.167312
    11  C   -0.253611
    12  H    0.167088
    13  C    0.023382
    14  H    0.140822
    15  H    0.138729
    16  C    0.703277
    17  C   -0.638153
    18  H    0.214788
    19  H    0.214986
    20  H    0.213539
    21  O   -0.473439
    22  O   -0.538212
    23  O   -0.667326
    24  H    0.339178
    25  H    0.322406
    26  O   -0.676960
    27  H    0.323115
    28  H    0.339549
 Sum of Mulliken charges =   0.00000
 Mulliken charges with hydrogens summed into heavy atoms:
               1
     1  C   -0.080906
     3  C    0.095297
     5  C    0.084134
     7  C    0.008319
    11  C   -0.086523
    13  C    0.302932
    16  C    0.703277
    17  C    0.005159
    21  O   -0.473439
    22  O   -0.538212
    23  O   -0.005742
    26  O   -0.014297
 Charge=              0.0000 electrons
 Dipole moment (field-independent basis, Debye):
    X=              3.6514    Y=              8.3906    Z=              2.3921  Tot=              9.4582
 N-N= 4.379062432963D+02 E-N=-7.850771149173D+02  KE=-4.321887244684D+01
 D1PCM: C-PCM CHGder 1st derivatives, ID1Alg=3 FixD1E=F DoIter=F DoCFld=F I1PDM=0.
 Calling FoFJK, ICntrl=      2127 FMM=F ISym2X=0 I1Cent= 0 IOpClX= 0 NMat=1 NMatS=1 NMatT=0.
 ***** Axes restored to original set *****
 -------------------------------------------------------------------
 Center     Atomic                   Forces (Hartrees/Bohr)
 Number     Number              X              Y              Z
 -------------------------------------------------------------------
      1        6          -0.000289538    0.000159669    0.000144747
      2        1          -0.000056061   -0.000130131   -0.000108978
      3        6           0.001040809    0.001150669    0.000126670
      4        1          -0.000632738   -0.001904120   -0.000424934
      5        6           0.000076626    0.000043106   -0.000029562
      6        1           0.000016844    0.000005736    0.000001022
      7        6          -0.000170883    0.000045989    0.000115672
      8        1           0.000045830   -0.000019132   -0.000008365
      9        1           0.000027758   -0.000033735   -0.000045633
     10        1           0.000019854   -0.000015188   -0.000026719
     11        6          -0.000329103   -0.000497984    0.000187124
     12        1          -0.000144396    0.000153824   -0.000056832
     13        6           0.002257409    0.002272551   -0.000239690
     14        1          -0.000201742   -0.000223763   -0.000261725
     15        1          -0.000179961   -0.000152110    0.000200204
     16        6          -0.000944751    0.014116396   -0.002271595
     17        6           0.000517382   -0.002935984    0.000383637
     18        1           0.000035336    0.000363047   -0.000515599
     19        1          -0.000380789    0.000208966   -0.000089742
     20        1           0.000084313    0.000450675    0.000276031
     21        8          -0.004779041   -0.001154784    0.001203497
     22        8          -0.000007234   -0.005200613    0.001961526
     23        8          -0.006088507   -0.001310130    0.000478294
     24        1          -0.001991262    0.003455096   -0.000298150
     25        1           0.007891466   -0.002387488   -0.000357105
     26        8           0.008567307   -0.008217163   -0.000092875
     27        1          -0.004738726    0.005056429   -0.003379099
     28        1           0.000353799   -0.003299828    0.003128180
 -------------------------------------------------------------------
 Cartesian Forces:  Max     0.014116396 RMS     0.002747082

 GradGradGradGradGradGradGradGradGradGradGradGradGradGradGradGradGradGrad
 Berny optimization.
 FormGI is forming the generalized inverse of G from B-inverse, IUseBI=4.
 Internal  Forces:  Max     0.008364248 RMS     0.001771604
 Search for a local minimum.
 Step number   1 out of a maximum of  140
 All quantities printed in internal units (Hartrees-Bohrs-Radians)
 Mixed Optimization -- RFO/linear search
 Second derivative matrix not updated -- first step.
 ITU=  0
     Eigenvalues ---    0.00230   0.00724   0.00834   0.00859   0.00911
     Eigenvalues ---    0.00954   0.01242   0.01275   0.01558   0.01558
     Eigenvalues ---    0.01745   0.01760   0.02019   0.02109   0.02113
     Eigenvalues ---    0.02115   0.02877   0.02899   0.02978   0.04307
     Eigenvalues ---    0.05890   0.05917   0.06726   0.06781   0.07000
     Eigenvalues ---    0.07010   0.07269   0.07289   0.09099   0.10247
     Eigenvalues ---    0.12648   0.15641   0.15998   0.15999   0.15999
     Eigenvalues ---    0.16000   0.16000   0.16000   0.16000   0.16000
     Eigenvalues ---    0.16000   0.16000   0.16000   0.16000   0.18986
     Eigenvalues ---    0.21885   0.22000   0.22000   0.22000   0.22001
     Eigenvalues ---    0.22002   0.25000   0.25000   0.32921   0.32952
     Eigenvalues ---    0.32967   0.33203   0.33539   0.33551   0.33560
     Eigenvalues ---    0.33633   0.33657   0.33862   0.33919   0.33949
     Eigenvalues ---    0.34442   0.34527   0.34562   0.36471   0.36595
     Eigenvalues ---    0.45639   0.55473   0.55473   0.55473   0.55473
     Eigenvalues ---    0.57104   0.57486   0.89615
 RFO step:  Lambda=-1.92693899D-03 EMin= 2.30000000D-03
 Linear search not attempted -- first point.
 Iteration  1 RMS(Cart)=  0.04163153 RMS(Int)=  0.00057620
 Iteration  2 RMS(Cart)=  0.00075111 RMS(Int)=  0.00006733
 Iteration  3 RMS(Cart)=  0.00000076 RMS(Int)=  0.00006733
 Variable       Old X    -DE/DX   Delta X   Delta X   Delta X     New X
                                 (Linear)    (Quad)   (Total)
    R1        2.06590   0.00015   0.00000   0.00043   0.00043   2.06634
    R2        2.76652  -0.00033   0.00000  -0.00091  -0.00091   2.76561
    R3        2.53308   0.00002   0.00000   0.00003   0.00003   2.53311
    R4        2.07416   0.00193   0.00000   0.00564   0.00564   2.07981
    R5        2.52987   0.00068   0.00000   0.00119   0.00119   2.53106
    R6        2.06450   0.00000   0.00000   0.00000   0.00000   2.06450
    R7        2.81380  -0.00007   0.00000  -0.00021  -0.00021   2.81358
    R8        2.07955   0.00001   0.00000   0.00004   0.00004   2.07958
    R9        2.07564   0.00006   0.00000   0.00018   0.00018   2.07583
   R10        2.07912   0.00001   0.00000   0.00002   0.00002   2.07914
   R11        2.06393   0.00006   0.00000   0.00016   0.00016   2.06409
   R12        2.82490  -0.00022   0.00000  -0.00067  -0.00067   2.82422
   R13        2.09136   0.00019   0.00000   0.00057   0.00057   2.09193
   R14        2.09109   0.00013   0.00000   0.00039   0.00039   2.09148
   R15        2.76461   0.00142   0.00000   0.00386   0.00386   2.76847
   R16        2.80768  -0.00170   0.00000  -0.00500  -0.00500   2.80268
   R17        2.60799  -0.00143   0.00000  -0.00055  -0.00065   2.60734
   R18        2.29106   0.00713   0.00000   0.00914   0.00906   2.30011
   R19        2.08116   0.00063   0.00000   0.00186   0.00186   2.08302
   R20        2.08697   0.00031   0.00000   0.00093   0.00093   2.08789
   R21        2.08094   0.00051   0.00000   0.00151   0.00151   2.08245
   R22        3.79835   0.00398   0.00000   0.05510   0.05516   3.85351
   R23        3.77945   0.00027   0.00000   0.00608   0.00608   3.78553
   R24        3.75575   0.00264   0.00000   0.04836   0.04841   3.80416
   R25        1.81414  -0.00045   0.00000  -0.00081  -0.00081   1.81332
   R26        1.81414  -0.00684   0.00000  -0.01229  -0.01229   1.80185
   R27        1.81414  -0.00668   0.00000  -0.01200  -0.01200   1.80214
   R28        1.81414   0.00538   0.00000   0.00967   0.00967   1.82381
    A1        1.99624  -0.00021   0.00000  -0.00110  -0.00110   1.99514
    A2        2.11912   0.00000   0.00000   0.00018   0.00018   2.11930
    A3        2.16765   0.00020   0.00000   0.00091   0.00091   2.16856
    A4        2.00546  -0.00051   0.00000  -0.00327  -0.00328   2.00218
    A5        2.17093  -0.00012   0.00000  -0.00058  -0.00059   2.17034
    A6        2.10671   0.00063   0.00000   0.00373   0.00371   2.11042
    A7        2.12354   0.00007   0.00000   0.00036   0.00036   2.12390
    A8        2.15670  -0.00011   0.00000  -0.00049  -0.00049   2.15621
    A9        2.00290   0.00004   0.00000   0.00013   0.00013   2.00303
   A10        1.93920   0.00007   0.00000   0.00054   0.00054   1.93974
   A11        1.97827  -0.00001   0.00000  -0.00015  -0.00015   1.97812
   A12        1.93949   0.00002   0.00000   0.00011   0.00011   1.93960
   A13        1.86700  -0.00003   0.00000  -0.00017  -0.00017   1.86682
   A14        1.86651  -0.00002   0.00000   0.00003   0.00003   1.86654
   A15        1.86775  -0.00003   0.00000  -0.00039  -0.00039   1.86737
   A16        2.13627   0.00008   0.00000   0.00066   0.00065   2.13691
   A17        2.16950   0.00026   0.00000   0.00115   0.00114   2.17064
   A18        1.97738  -0.00033   0.00000  -0.00186  -0.00187   1.97551
   A19        1.94852   0.00032   0.00000   0.00145   0.00144   1.94995
   A20        1.94936   0.00070   0.00000   0.00435   0.00433   1.95370
   A21        1.86058  -0.00151   0.00000  -0.00788  -0.00788   1.85270
   A22        1.93016  -0.00004   0.00000   0.00299   0.00298   1.93314
   A23        1.88643   0.00043   0.00000   0.00070   0.00070   1.88713
   A24        1.88525   0.00005   0.00000  -0.00229  -0.00228   1.88296
   A25        2.08705   0.00314   0.00000   0.00991   0.00999   2.09704
   A26        2.21073   0.00118   0.00000   0.00209   0.00218   2.21290
   A27        1.98541  -0.00432   0.00000  -0.01200  -0.01217   1.97323
   A28        1.96526  -0.00009   0.00000  -0.00100  -0.00100   1.96426
   A29        1.93672   0.00044   0.00000   0.00311   0.00311   1.93982
   A30        1.96564   0.00011   0.00000   0.00073   0.00072   1.96637
   A31        1.85673  -0.00021   0.00000  -0.00140  -0.00140   1.85533
   A32        1.87564  -0.00013   0.00000  -0.00154  -0.00154   1.87410
   A33        1.85706  -0.00015   0.00000  -0.00007  -0.00008   1.85699
   A34        2.10945   0.00027   0.00000   0.00554   0.00561   2.11506
   A35        2.64489  -0.00395   0.00000  -0.02017  -0.02025   2.62464
   A36        1.52018   0.00363   0.00000   0.01654   0.01648   1.53665
   A37        2.55516  -0.00139   0.00000  -0.01030  -0.01031   2.54486
   A38        1.62149   0.00223   0.00000   0.01797   0.01791   1.63940
   A39        2.09800  -0.00082   0.00000  -0.00625  -0.00623   2.09177
   A40        1.91114  -0.00836   0.00000  -0.05165  -0.05165   1.85948
   A41        2.79642  -0.00073   0.00000  -0.00291  -0.00291   2.79351
   A42        1.91114  -0.00694   0.00000  -0.04288  -0.04288   1.86825
   A43        1.14946  -0.00151   0.00000  -0.02060  -0.02043   1.12903
   A44        2.51081   0.00014   0.00000   0.00403   0.00399   2.51480
   A45        2.42738   0.00169   0.00000   0.02120   0.02111   2.44850
    D1        0.62539  -0.00011   0.00000  -0.00486  -0.00485   0.62054
    D2       -2.50277   0.00012   0.00000   0.00534   0.00533  -2.49745
    D3       -2.49622  -0.00011   0.00000  -0.00459  -0.00458  -2.50080
    D4        0.65881   0.00012   0.00000   0.00561   0.00560   0.66441
    D5       -3.12247   0.00000   0.00000   0.00008   0.00008  -3.12239
    D6        0.00827  -0.00001   0.00000  -0.00056  -0.00056   0.00772
    D7       -0.00221  -0.00001   0.00000  -0.00022  -0.00022  -0.00243
    D8        3.12853  -0.00002   0.00000  -0.00086  -0.00086   3.12767
    D9        0.00157   0.00012   0.00000   0.00414   0.00414   0.00570
   D10        3.13406  -0.00004   0.00000  -0.00426  -0.00428   3.12979
   D11       -3.12585   0.00037   0.00000   0.01495   0.01497  -3.11089
   D12        0.00664   0.00021   0.00000   0.00655   0.00655   0.01320
   D13       -2.07831   0.00002   0.00000   0.00062   0.00062  -2.07769
   D14        0.02466   0.00002   0.00000   0.00068   0.00068   0.02534
   D15        2.12883  -0.00002   0.00000   0.00015   0.00015   2.12898
   D16        1.05312   0.00001   0.00000   0.00002   0.00002   1.05314
   D17       -3.12710   0.00001   0.00000   0.00008   0.00008  -3.12702
   D18       -1.02293  -0.00003   0.00000  -0.00045  -0.00045  -1.02338
   D19       -1.99488   0.00060   0.00000   0.02863   0.02864  -1.96624
   D20        2.11708  -0.00011   0.00000   0.02033   0.02032   2.13740
   D21        0.06158   0.00037   0.00000   0.02550   0.02550   0.08708
   D22        1.13835   0.00045   0.00000   0.02092   0.02092   1.15927
   D23       -1.03287  -0.00025   0.00000   0.01261   0.01261  -1.02027
   D24       -3.08838   0.00022   0.00000   0.01778   0.01779  -3.07059
   D25       -3.13426   0.00030   0.00000   0.02948   0.02945  -3.10481
   D26        0.21354   0.00020   0.00000   0.00323   0.00327   0.21681
   D27       -1.03731   0.00007   0.00000   0.02723   0.02720  -1.01011
   D28        2.31049  -0.00003   0.00000   0.00098   0.00102   2.31151
   D29        1.05160   0.00028   0.00000   0.02990   0.02986   1.08146
   D30       -1.88379   0.00018   0.00000   0.00365   0.00368  -1.88011
   D31        1.06684   0.00008   0.00000   0.00234   0.00234   1.06918
   D32       -3.13726   0.00005   0.00000   0.00203   0.00203  -3.13523
   D33       -1.05749   0.00024   0.00000   0.00457   0.00458  -1.05291
   D34       -2.07450  -0.00016   0.00000  -0.00349  -0.00349  -2.07799
   D35        0.00459  -0.00019   0.00000  -0.00380  -0.00380   0.00079
   D36        2.08436   0.00000   0.00000  -0.00126  -0.00126   2.08310
   D37       -0.00249   0.00078   0.00000   0.00093   0.00057  -0.00192
   D38        3.04125   0.00013   0.00000   0.00967   0.00976   3.05101
   D39        3.13887   0.00099   0.00000   0.00604   0.00565  -3.13866
   D40       -0.10057   0.00034   0.00000   0.01479   0.01484  -0.08573
   D41       -0.06184   0.00026   0.00000   0.00540   0.00531  -0.05653
   D42       -3.04012  -0.00005   0.00000  -0.00907  -0.00923  -3.04935
   D43        3.08000   0.00003   0.00000  -0.00015  -0.00018   3.07982
   D44        0.10171  -0.00028   0.00000  -0.01461  -0.01472   0.08700
   D45        3.02616   0.00024   0.00000   0.01450   0.01427   3.04043
   D46       -0.77494   0.00124   0.00000   0.02666   0.02656  -0.74838
   D47        0.06147   0.00010   0.00000  -0.00867  -0.00875   0.05272
   D48        2.54356   0.00109   0.00000   0.00348   0.00354   2.54710
   D49        0.35557  -0.00028   0.00000  -0.01970  -0.01971   0.33586
   D50       -2.97503   0.00019   0.00000  -0.00203  -0.00202  -2.97705
   D51       -0.06998   0.00012   0.00000   0.01005   0.01011  -0.05987
   D52       -2.62718   0.00044   0.00000   0.01221   0.01233  -2.61485
   D53       -3.10728   0.00010   0.00000   0.00210   0.00199  -3.10529
   D54        0.61871   0.00041   0.00000   0.00426   0.00421   0.62292
   D55       -0.37592   0.00019   0.00000   0.01060   0.01060  -0.36531
   D56        2.02570   0.00037   0.00000   0.02109   0.02099   2.04669
   D57       -2.13879   0.00038   0.00000   0.02183   0.02193  -2.11685
         Item               Value     Threshold  Converged?
 Maximum Force            0.008364     0.000450     NO 
 RMS     Force            0.001772     0.000300     NO 
 Maximum Displacement     0.145690     0.001800     NO 
 RMS     Displacement     0.041579     0.001200     NO 
 Predicted change in Energy=-9.856818D-04
 GradGradGradGradGradGradGradGradGradGradGradGradGradGradGradGradGradGrad

                          Input orientation:                          
 ---------------------------------------------------------------------
 Center     Atomic      Atomic             Coordinates (Angstroms)
 Number     Number       Type             X           Y           Z
 ---------------------------------------------------------------------
      1          6           0        2.541993   -0.588926   -0.351555
      2          1           0        2.820111   -1.431071   -0.991158
      3          6           0        1.100027   -0.360994   -0.248558
      4          1           0        0.488024   -1.275716   -0.253585
      5          6           0        3.468337    0.138096    0.288894
      6          1           0        3.194375    0.969215    0.942891
      7          6           0        4.931321   -0.118580    0.186070
      8          1           0        5.361489   -0.362628    1.169140
      9          1           0        5.181098   -0.949084   -0.488119
     10          1           0        5.464564    0.769015   -0.185871
     11          6           0        0.529079    0.848659   -0.180024
     12          1           0        1.110575    1.773022   -0.201635
     13          6           0       -0.944279    1.082263   -0.089367
     14          1           0       -1.339502    1.565683   -1.003452
     15          1           0       -1.215873    1.665131    0.811423
     16          6           0       -2.930803   -0.389031    0.090055
     17          6           0       -3.811275    0.803368    0.039257
     18          1           0       -3.701758    1.369861   -0.899960
     19          1           0       -4.875973    0.515719    0.105608
     20          1           0       -3.625929    1.503764    0.869599
     21          8           0       -1.560324   -0.241669    0.028740
     22          8           0       -3.281407   -1.550323    0.189930
     23          8           0       -5.733061   -3.128239    0.407017
     24          1           0       -4.831314   -2.800189    0.410168
     25          1           0       -6.300601   -2.362431    0.431310
     26          8           0       -0.880086   -3.034989    0.139692
     27          1           0       -0.513886   -3.353901    0.960448
     28          1           0       -1.400231   -2.249276    0.348399
 ---------------------------------------------------------------------
                    Distance matrix (angstroms):
                    1          2          3          4          5
     1  C    0.000000
     2  H    1.093458   0.000000
     3  C    1.463499   2.157593   0.000000
     4  H    2.167964   2.450873   1.100586   0.000000
     5  C    1.340465   2.126268   2.479281   3.342965   0.000000
     6  H    2.128143   3.105155   2.752326   3.714243   1.092486
     7  C    2.493823   2.750583   3.863480   4.612499   1.488885
     8  H    3.211430   3.502437   4.491095   5.158347   2.146994
     9  H    2.667066   2.461630   4.130180   4.710270   2.172386
    10  H    3.226898   3.532987   4.508884   5.380656   2.146715
    11  C    2.479495   3.332257   1.339380   2.126044   3.060069
    12  H    2.765906   3.716460   2.134558   3.112085   2.910781
    13  C    3.875011   4.615269   2.507492   2.763788   4.528323
    14  H    4.487016   5.126701   3.198945   3.460592   5.179139
    15  H    4.533746   5.396752   3.254556   3.561754   4.954463
    16  C    5.494222   5.943726   4.045125   3.548616   6.423892
    17  C    6.515768   7.073171   5.055636   4.784591   7.314209
    18  H    6.566736   7.098473   5.145612   4.997114   7.371627
    19  H    7.513684   8.013899   6.050341   5.666632   8.354860
    20  H    6.626751   7.323052   5.202139   5.090349   7.247818
    21  O    4.134515   4.652212   2.677424   2.311858   5.049686
    22  O    5.927013   6.215923   4.561112   3.805354   6.958419
    23  O    8.689077   8.831309   7.401251   6.524579   9.764661
    24  H    7.735345   7.898259   6.447046   5.573144   8.805250
    25  H    9.052606   9.277835   7.696575   6.909085  10.084893
    26  O    4.234993   4.188415   3.349901   2.263058   5.385118
    27  H    4.324909   4.315272   3.608865   2.607020   5.338832
    28  H    4.334493   4.502795   3.189555   2.208102   5.422734
                    6          7          8          9         10
     6  H    0.000000
     7  C    2.184732   0.000000
     8  H    2.553699   1.100468   0.000000
     9  H    3.110423   1.098479   1.767196   0.000000
    10  H    2.543215   1.100234   1.768417   1.767363   0.000000
    11  C    2.894698   4.522092   5.161362   4.996808   4.936131
    12  H    2.509635   4.280955   4.950788   4.905211   4.468277
    13  C    4.266941   6.003379   6.590468   6.465726   6.417219
    14  H    4.969916   6.601131   7.303549   7.007700   6.899162
    15  H    4.466752   6.431228   6.892131   7.031656   6.813653
    16  C    6.331664   7.867360   8.362251   8.151742   8.479351
    17  C    7.065634   8.792299   9.315352   9.176709   9.278633
    18  H    7.149354   8.827512   9.456488   9.189791   9.213707
    19  H    8.126328   9.828114  10.329967  10.180513  10.347744
    20  H    6.841612   8.736460   9.184053   9.242488   9.181009
    21  O    4.990899   6.494717   7.016170   6.798114   7.100464
    22  O    6.989333   8.336594   8.778903   8.510889   9.056079
    23  O    9.837449  11.083136  11.459428  11.165521  11.871264
    24  H    8.882785  10.126711  10.507663  10.221639  10.913275
    25  H   10.075522  11.456486  11.855292  11.604840  12.190405
    26  O    5.768882   6.502310   6.867207   6.440737   7.404796
    27  H    5.695686   6.381006   6.596310   6.349357   7.352166
    28  H    5.641144   6.682423   7.067809   6.760485   7.518041
                   11         12         13         14         15
    11  C    0.000000
    12  H    1.092270   0.000000
    13  C    1.494514   2.170755   0.000000
    14  H    2.164198   2.586267   1.106999   0.000000
    15  H    2.166668   2.539742   1.106762   1.821797   0.000000
    16  C    3.684508   4.592635   2.478544   2.747526   2.771451
    17  C    4.346125   5.022237   2.883399   2.788911   2.841651
    18  H    4.323187   4.879421   2.888506   2.372617   3.032431
    19  H    5.422823   6.124864   3.977085   3.852150   3.900724
    20  H    4.335315   4.863590   2.878980   2.956332   2.416152
    21  O    2.366009   3.353469   1.465010   2.093012   2.089767
    22  O    4.517940   5.521544   3.531386   3.860654   3.871928
    23  O    7.441420   8.439678   6.395871   6.582225   6.598858
    24  H    6.511238   7.522939   5.516521   5.766446   5.759470
    25  H    7.571615   8.510471   6.389617   6.488538   6.497707
    26  O    4.143752   5.214998   4.124118   4.762774   4.759738
    27  H    4.477718   5.502241   4.578963   5.361050   5.070077
    28  H    3.687637   4.773423   3.390971   4.047851   3.946006
                   16         17         18         19         20
    16  C    0.000000
    17  C    1.483114   0.000000
    18  H    2.160603   1.102287   0.000000
    19  H    2.145344   1.104865   1.766212   0.000000
    20  H    2.161842   1.101987   1.776238   1.767067   0.000000
    21  O    1.379743   2.481732   2.836416   3.401922   2.832014
    22  O    1.217168   2.417297   3.145160   2.611184   3.147712
    23  O    3.931460   4.391588   5.105613   3.755513   5.109740
    24  H    3.086761   3.763466   4.514604   3.330165   4.493110
    25  H    3.919987   4.046324   4.738805   3.227909   4.721592
    26  O    3.347984   4.830625   5.333424   5.345634   5.354689
    27  H    3.922949   5.385560   5.994796   5.893430   5.769746
    28  H    2.422788   3.902222   4.466943   4.448024   4.394392
                   21         22         23         24         25
    21  O    0.000000
    22  O    2.168107   0.000000
    23  O    5.087939   2.923620   0.000000
    24  H    4.170239   2.003217   0.959570   0.000000
    25  H    5.208640   3.135812   0.953496   1.533259   0.000000
    26  O    2.877094   2.823668   4.861227   3.967429   5.469859
    27  H    3.413078   3.392015   5.253284   4.387435   5.894834
    28  H    2.039191   2.013074   4.421473   3.475579   4.902377
                   26         27         28
    26  O    0.000000
    27  H    0.953649   0.000000
    28  H    0.965119   1.542857   0.000000
 Stoichiometry    C8H16O4
 Framework group  C1[X(C8H16O4)]
 Deg. of freedom    78
 Full point group                 C1      NOp   1
 Largest Abelian subgroup         C1      NOp   1
 Largest concise Abelian subgroup C1      NOp   1
                         Standard orientation:                         
 ---------------------------------------------------------------------
 Center     Atomic      Atomic             Coordinates (Angstroms)
 Number     Number       Type             X           Y           Z
 ---------------------------------------------------------------------
      1          6           0        3.190836   -0.561456   -0.381103
      2          1           0        3.318138   -1.395328   -1.076877
      3          6           0        1.817138   -0.067428   -0.277572
      4          1           0        1.041572   -0.844429   -0.355396
      5          6           0        4.223251   -0.072555    0.320283
      6          1           0        4.097561    0.748731    1.029660
      7          6           0        5.612062   -0.598782    0.215075
      8          1           0        5.963219   -0.988314    1.182537
      9          1           0        5.714637   -1.413413   -0.514660
     10          1           0        6.314422    0.192818   -0.085879
     11          6           0        1.486950    1.221961   -0.127941
     12          1           0        2.235084    2.016116   -0.076318
     13          6           0        0.083841    1.728443   -0.036648
     14          1           0       -0.188876    2.340787   -0.917618
     15          1           0       -0.093144    2.289282    0.900933
     16          6           0       -2.151514    0.658971    0.014288
     17          6           0       -2.785770    1.999370    0.040294
     18          1           0       -2.546718    2.597441   -0.854246
     19          1           0       -3.887155    1.918523    0.074089
     20          1           0       -2.490173    2.591998    0.921083
     21          8           0       -0.777098    0.543199   -0.021307
     22          8           0       -2.720408   -0.417002    0.026094
     23          8           0       -5.433485   -1.503753    0.101826
     24          1           0       -4.485955   -1.356730    0.138497
     25          1           0       -5.844257   -0.646415    0.175271
     26          8           0       -0.647425   -2.329744   -0.105282
     27          1           0       -0.369382   -2.769041    0.694191
     28          1           0       -1.012416   -1.474765    0.154037
 ---------------------------------------------------------------------
 Rotational constants (GHZ):      1.6361684      0.2845827      0.2454593
 Standard basis: VSTO-6G (5D, 7F)
 There are    64 symmetry adapted cartesian basis functions of A   symmetry.
 There are    64 symmetry adapted basis functions of A   symmetry.
    64 basis functions,   384 primitive gaussians,    64 cartesian basis functions
    36 alpha electrons       36 beta electrons
       nuclear repulsion energy       437.8954975359 Hartrees.
 Integral buffers will be    131072 words long.
 Regular integral format.
 Two-electron integral symmetry is turned off.
 Nuclear repulsion after empirical dispersion term =      437.8892935220 Hartrees.
 ------------------------------------------------------------------------------
 Polarizable Continuum Model (PCM)
 =================================
 Model                : C-PCM.
 Atomic radii         : UFF (Universal Force Field).
 Polarization charges : Total charges.
 Charge compensation  : None.
 Solution method      : On-the-fly selection.
 Cavity type          : Scaled VdW (van der Waals Surface) (Alpha=1.100).
 Cavity algorithm     : GePol (No added spheres)
                        Default sphere list used, NSphG=   28.
                        Lebedev-Laikov grids with approx.  5.0 points / Ang**2.
                        Smoothing algorithm: Karplus/York (Gamma=1.0000).
                        Polarization charges: spherical gaussians, with
                                              point-specific exponents (IZeta= 3).
                        Self-potential: point-specific (ISelfS= 7).
                        Self-field    : sphere-specific E.n sum rule (ISelfD= 2).
 1st derivatives      : Analytical E(r).r(x)/FMM algorithm (CHGder, D1EAlg=3).
                        Cavity 1st derivative terms included.
 Solvent              : Toluene, Eps=   2.374100 Eps(inf)=   2.238315
 ------------------------------------------------------------------------------
 Do NDO integrals.
 One-electron integrals computed using PRISM.
 NBasis=    64 RedAO= F EigKep=  0.00D+00  NBF=    64
 NBsUse=    64 1.00D-04 EigRej=  0.00D+00 NBFU=    64
 Initial guess from the checkpoint file:  "PM6_2H2O_diene_pm6_cpcmtoluene_1.chk"
 B after Tr=     0.000000    0.000000    0.000000
         Rot=    0.999996   -0.001751    0.000031   -0.002183 Ang=  -0.32 deg.
 Overlap will be assumed to be unity.
 Keep J ints in memory in canonical form, NReq=9012080.
 Requested convergence on RMS density matrix=1.00D-08 within 128 cycles.
 Requested convergence on MAX density matrix=1.00D-06.
 Requested convergence on             energy=1.00D-06.
 No special actions if energy rises.
 Inv3:  Mode=1 IEnd=    16188987.
 Iteration    1 A*A^-1 deviation from unit magnitude is 6.44D-15 for   2318.
 Iteration    1 A*A^-1 deviation from orthogonality  is 2.54D-15 for   2286    457.
 Iteration    1 A^-1*A deviation from unit magnitude is 6.22D-15 for   2318.
 Iteration    1 A^-1*A deviation from orthogonality  is 2.28D-15 for   2321   1979.
 Error on total polarization charges = -0.00010
 SCF Done:  E(RPM6D3) = -0.311810665248     A.U. after   13 cycles
            NFock= 12  Conv=0.42D-08     -V/T= 0.9928
 D1PCM: C-PCM CHGder 1st derivatives, ID1Alg=3 FixD1E=F DoIter=F DoCFld=F I1PDM=0.
 Calling FoFJK, ICntrl=      2127 FMM=F ISym2X=0 I1Cent= 0 IOpClX= 0 NMat=1 NMatS=1 NMatT=0.
 ***** Axes restored to original set *****
 -------------------------------------------------------------------
 Center     Atomic                   Forces (Hartrees/Bohr)
 Number     Number              X              Y              Z
 -------------------------------------------------------------------
      1        6          -0.000032737    0.000111694    0.000236726
      2        1           0.000007827   -0.000075058   -0.000042382
      3        6           0.000094421    0.001160773   -0.000626870
      4        1          -0.000209164   -0.000612486    0.000087121
      5        6           0.000005334   -0.000015243    0.000020385
      6        1          -0.000010343   -0.000014473   -0.000020856
      7        6          -0.000018716    0.000040760    0.000028133
      8        1           0.000001154   -0.000005624   -0.000016227
      9        1           0.000021130   -0.000021968   -0.000014163
     10        1           0.000016269   -0.000007919   -0.000005523
     11        6           0.000180792   -0.000697740   -0.000212772
     12        1           0.000073264   -0.000015501    0.000332492
     13        6           0.001203669    0.000630039   -0.000295120
     14        1          -0.000098548   -0.000178800    0.000115445
     15        1          -0.000118227   -0.000310800   -0.000167220
     16        6          -0.000296492    0.005576890   -0.001020706
     17        6           0.000620301   -0.001768729   -0.000001507
     18        1           0.000030161    0.000275824   -0.000230137
     19        1          -0.000113287    0.000109459   -0.000043904
     20        1           0.000069848    0.000238804    0.000075005
     21        8          -0.005393361    0.000216729    0.001104832
     22        8           0.000816362    0.000661206    0.001288540
     23        8          -0.003470113   -0.000025135    0.000403176
     24        1           0.002382058    0.000529636   -0.000455222
     25        1           0.001015430   -0.000692424   -0.000138563
     26        8           0.005810429   -0.004000409    0.000561008
     27        1          -0.001249767    0.000774275   -0.000944705
     28        1          -0.001337693   -0.001883780   -0.000016989
 -------------------------------------------------------------------
 Cartesian Forces:  Max     0.005810429 RMS     0.001347497

 GradGradGradGradGradGradGradGradGradGradGradGradGradGradGradGradGradGrad
 Berny optimization.
 Using GEDIIS/GDIIS optimizer.
 FormGI is forming the generalized inverse of G from B-inverse, IUseBI=4.
 Internal  Forces:  Max     0.005167832 RMS     0.000879447
 Search for a local minimum.
 Step number   2 out of a maximum of  140
 All quantities printed in internal units (Hartrees-Bohrs-Radians)
 Mixed Optimization -- En-DIIS/RFO-DIIS
 Update second derivatives using D2CorX and points    1    2
 DE= -1.39D-03 DEPred=-9.86D-04 R= 1.41D+00
 TightC=F SS=  1.41D+00  RLast= 1.49D-01 DXNew= 5.0454D-01 4.4614D-01
 Trust test= 1.41D+00 RLast= 1.49D-01 DXMaxT set to 4.46D-01
 ITU=  1  0
 Use linear search instead of GDIIS.
     Eigenvalues ---    0.00230   0.00712   0.00800   0.00854   0.00911
     Eigenvalues ---    0.00954   0.01242   0.01251   0.01512   0.01558
     Eigenvalues ---    0.01751   0.01760   0.01982   0.02091   0.02114
     Eigenvalues ---    0.02134   0.02876   0.02891   0.02964   0.03933
     Eigenvalues ---    0.04321   0.05953   0.06759   0.06797   0.07001
     Eigenvalues ---    0.07010   0.07247   0.07285   0.09022   0.09723
     Eigenvalues ---    0.12567   0.15446   0.15779   0.15998   0.15998
     Eigenvalues ---    0.15999   0.15999   0.16000   0.16000   0.16000
     Eigenvalues ---    0.16000   0.16000   0.16000   0.16321   0.19005
     Eigenvalues ---    0.21529   0.21999   0.22000   0.22000   0.22001
     Eigenvalues ---    0.22398   0.24960   0.25115   0.32928   0.32956
     Eigenvalues ---    0.32990   0.33202   0.33509   0.33548   0.33560
     Eigenvalues ---    0.33633   0.33657   0.33748   0.33862   0.33982
     Eigenvalues ---    0.34442   0.34527   0.34562   0.36473   0.36568
     Eigenvalues ---    0.45742   0.52580   0.55473   0.55473   0.57104
     Eigenvalues ---    0.57362   0.59477   0.90638
 RFO step:  Lambda=-7.49485576D-04 EMin= 2.29874232D-03
 Quartic linear search produced a step of  0.74906.
 Iteration  1 RMS(Cart)=  0.05464284 RMS(Int)=  0.00102126
 Iteration  2 RMS(Cart)=  0.00176071 RMS(Int)=  0.00022772
 Iteration  3 RMS(Cart)=  0.00000220 RMS(Int)=  0.00022772
 Iteration  4 RMS(Cart)=  0.00000000 RMS(Int)=  0.00022772
 Variable       Old X    -DE/DX   Delta X   Delta X   Delta X     New X
                                 (Linear)    (Quad)   (Total)
    R1        2.06634   0.00009   0.00032   0.00027   0.00060   2.06693
    R2        2.76561  -0.00002  -0.00068   0.00023  -0.00045   2.76516
    R3        2.53311  -0.00001   0.00002  -0.00006  -0.00003   2.53308
    R4        2.07981   0.00063   0.00423   0.00113   0.00535   2.08516
    R5        2.53106  -0.00052   0.00089  -0.00201  -0.00112   2.52994
    R6        2.06450  -0.00002   0.00000  -0.00011  -0.00011   2.06438
    R7        2.81358   0.00002  -0.00016   0.00019   0.00003   2.81362
    R8        2.07958  -0.00001   0.00003  -0.00007  -0.00005   2.07954
    R9        2.07583   0.00003   0.00014   0.00010   0.00024   2.07606
   R10        2.07914   0.00000   0.00001   0.00000   0.00001   2.07915
   R11        2.06409   0.00002   0.00012   0.00004   0.00016   2.06425
   R12        2.82422   0.00017  -0.00050   0.00115   0.00064   2.82486
   R13        2.09193  -0.00014   0.00043  -0.00094  -0.00052   2.09141
   R14        2.09148  -0.00027   0.00029  -0.00156  -0.00127   2.09021
   R15        2.76847   0.00049   0.00289   0.00090   0.00379   2.77226
   R16        2.80268  -0.00127  -0.00374  -0.00466  -0.00840   2.79428
   R17        2.60734  -0.00275  -0.00049  -0.00693  -0.00783   2.59951
   R18        2.30011   0.00128   0.00678   0.00081   0.00723   2.30735
[...]
 0280052,0.02380817,-0.03601409,0.00775362,0.02615879,-0.00693572,-0.00
 506660,-0.01592159,0.00252667,0.02466427,-0.00211136,-0.03616823,0.003
 84465,-0.00037009,0.01434597,0.00145691,-0.00065824,-0.00053691,-0.000
 10283,-0.00016461,0.00044011,-0.00107846,0.00131641,-0.00012690,-0.059
 60841,-0.05559476,0.05423053,-0.00041970,-0.00010721,-0.00000954,0.000
 00498,-0.00011887,-0.00003514,0.00057099,-0.00049407,0.00007126,0.0004
 4653,-0.00007666,-0.00001868,0.00035385,0.00007563,-0.00004077,-0.0000
 2212,0.00016041,0.00010443,-0.00052409,-0.00006415,-0.00001275,0.00007
 016,0.00001950,0.00007314,0.00008517,-0.00005527,-0.00002891,0.0000638
 3,0.00007281,-0.00002670,-0.00231019,-0.00368202,0.00076710,-0.0005817
 8,0.00059096,-0.00011379,-0.00437677,0.01092704,-0.00023691,-0.0006665
 7,-0.00008166,-0.00082238,-0.00044169,0.00041724,0.00082144,-0.0740922
 7,-0.13025701,0.01951006,0.00918824,0.02251575,-0.00186157,-0.00118980
 ,0.00050861,0.00044007,0.00013266,-0.00135673,0.00016037,-0.00149653,0
 .00062525,-0.00042463,-0.05981708,-0.08226486,0.01860417,0.14220904,-0
 .00058390,0.00011723,-0.00006674,-0.00004143,-0.00026460,-0.00004286,0
 .00070178,-0.00040534,0.00006729,0.00008393,-0.00100213,0.00018081,0.0
 0038058,0.00013536,-0.00002333,-0.00000464,0.00014287,0.00012527,-0.00
 057649,0.00001963,-0.00002167,0.00007010,-0.00001110,0.00008651,0.0000
 8614,-0.00009653,-0.00002686,0.00006563,0.00005699,-0.00002682,-0.0021
 6211,-0.00249311,0.00054247,-0.00056780,0.00057619,-0.00012837,-0.0017
 9421,0.01263172,-0.00057818,-0.00005122,0.00048668,-0.00096695,0.00018
 656,0.00098857,0.00066725,-0.09563161,-0.62586601,0.08707547,0.0156205
 9,-0.06469809,0.00973232,0.00135977,-0.00078056,-0.00274158,-0.0041887
 5,-0.00122191,0.00044452,0.00114414,0.00039768,0.00261814,-0.09669364,
 -0.06396662,0.02043156,0.18053624,0.74279121,0.00013400,0.00000789,0.0
 0006584,-0.00000064,0.00004099,-0.00002075,-0.00016595,0.00011006,-0.0
 0001047,-0.00004516,0.00014739,-0.00012142,-0.00009997,-0.00002408,0.0
 0000571,0.00001007,-0.00004259,-0.00004366,0.00013840,0.00000697,0.000
 04153,-0.00001457,-0.00000036,-0.00003106,-0.00002197,0.00001920,-0.00
 000466,-0.00001729,-0.00001778,-0.00000382,0.00058518,0.00081277,-0.00
 007497,0.00014670,-0.00015930,-0.00005513,0.00136225,-0.00229733,0.005
 72300,-0.00029306,-0.00086501,0.00022236,0.00034499,0.00055660,-0.0004
 5536,0.01475257,0.09069650,-0.07239300,-0.00097169,0.00913249,0.019956
 33,0.00149429,-0.00177882,-0.00026646,0.00056068,0.00014742,-0.0005294
 8,-0.00166476,0.00166715,-0.00110488,0.02059392,0.01910063,0.00516527,
 -0.03718981,-0.11633675,0.04581134,-0.00012354,-0.00002794,0.00000029,
 0.00000496,-0.00002375,-0.00000811,0.00008156,-0.00010691,0.00001883,0
 .00009776,-0.00002271,-0.00001007,0.00009948,0.00001841,-0.00000804,-0
 .00000148,0.00003888,0.00002180,-0.00015320,-0.00001777,0.00000127,0.0
 0002366,0.00000629,0.00001778,0.00002649,-0.00001372,-0.00000898,0.000
 02173,0.00002001,-0.00000832,-0.00027396,-0.00028475,0.00007213,-0.000
 04391,0.00009506,-0.00002416,0.00026074,0.00127958,-0.00017820,-0.0000
 1494,0.00003127,-0.00013430,0.00000592,0.00006498,0.00010026,0.0052855
 5,0.00550962,-0.00137812,-0.00294376,-0.00429796,0.00074606,-0.0000547
 6,0.00053045,-0.00045111,0.00023630,0.00072432,0.00000266,0.00001524,0
 .00063326,0.00028941,-0.00306139,-0.00182010,0.00061688,-0.00937216,-0
 .00482330,0.00179812,0.22837097,-0.00004562,0.00001200,-0.00000502,0.0
 0000071,-0.00002264,-0.00000294,0.00003501,-0.00002489,0.00000506,0.00
 000904,-0.00005259,0.00000887,0.00003274,0.00000913,-0.00000227,0.0000
 0133,0.00000765,0.00000858,-0.00005251,0.00000966,-0.00000227,0.000007
 59,-0.00000316,0.00000736,0.00000855,-0.00001012,-0.00000191,0.0000073
 2,0.00000261,-0.00000193,-0.00007318,-0.00000844,0.00000729,-0.0000113
 8,0.00001565,-0.00000554,0.00010193,0.00030989,-0.00004612,0.00004302,
 0.00000301,-0.00003848,0.00004947,0.00000896,0.00002270,0.00267322,-0.
 00197054,0.00000979,-0.00581294,-0.00266558,0.00065830,0.00018050,0.00
 038567,-0.00040177,0.00293452,0.00111574,0.00006050,0.00024009,0.00045
 434,0.00027672,-0.00108311,0.00006133,0.00012182,0.00007832,0.00215619
 ,-0.00031228,-0.01791045,0.11297237,-0.00000315,-0.00000173,0.00002295
 ,-0.00000127,-0.00000162,-0.00001368,0.00000017,-0.00001082,0.00000873
 ,0.00001442,0.00000678,-0.00002829,0.00000127,0.00000202,-0.00000014,0
 .00000210,0.00000114,-0.00000653,-0.00000667,-0.00000386,0.00002137,0.
 00000216,0.00000161,-0.00000562,0.00000106,0.00000044,-0.00000707,0.00
 000030,0.00000130,-0.00000679,-0.00003173,-0.00006026,0.00004787,-0.00
 000828,0.00001301,-0.00002220,0.00000631,0.00018260,-0.00003117,-0.000
 02966,0.00000500,-0.00005699,-0.00000753,0.00000236,-0.00001527,0.0003
 0300,0.00172225,-0.00105359,0.00063653,0.00005613,0.00144557,-0.000206
 15,-0.00014762,-0.00017873,0.00000765,0.00045766,-0.00128545,0.0000233
 4,0.00006810,-0.00018667,-0.00033315,-0.00045214,0.00022013,-0.0022752
 6,-0.00165545,0.00194777,0.09242207,0.07535004,0.10916119,0.00013206,0
 .00003008,0.00000145,-0.00000332,0.00002769,0.00000847,-0.00009961,0.0
 0012416,-0.00002135,-0.00011335,0.00003025,0.00000745,-0.00010416,-0.0
 0002086,0.00000935,0.00000320,-0.00004335,-0.00002581,0.00015832,0.000
 01955,0.00000132,-0.00002323,-0.00000654,-0.00001985,-0.00002680,0.000
 01480,0.00000888,-0.00002131,-0.00002131,0.00000819,0.00037201,0.00045
 929,-0.00010419,0.00007303,-0.00012145,0.00002665,-0.00017801,-0.00181
 274,0.00026755,0.00006597,-0.00003481,0.00017183,0.00004399,-0.0000786
 7,-0.00015071,-0.00706580,-0.01430174,0.00281468,-0.00143547,0.0019497
 2,-0.00028208,0.00018471,-0.00022276,0.00025940,0.00186781,0.00057652,
 -0.00011647,0.00014476,-0.00032139,-0.00020871,0.00375249,0.00347984,-
 0.00085187,0.00415668,0.01037678,-0.00231127,-0.15810153,0.03973846,-0
 .04400682,0.19042732,0.00003789,-0.00000699,0.00000382,0.00000024,0.00
 001772,0.00000237,-0.00003050,0.00002384,-0.00000473,-0.00001374,0.000
 04369,-0.00000695,-0.00002614,-0.00000768,0.00000174,-0.00000045,-0.00
 000779,-0.00000744,0.00004136,-0.00000505,0.00000206,-0.00000562,0.000
 00175,-0.00000595,-0.00000655,0.00000749,0.00000157,-0.00000540,-0.000
 00292,0.00000158,0.00007988,0.00005197,-0.00001396,0.00001540,-0.00002
 101,0.00000544,-0.00009145,-0.00038149,0.00006547,-0.00001502,-0.00000
 929,0.00003805,-0.00001961,-0.00001524,-0.00002727,-0.00552732,-0.0016
 6130,0.00090985,0.00126659,0.00129857,-0.00034962,-0.00003558,-0.00027
 209,0.00020576,-0.00039062,-0.00224405,0.00043084,-0.00008972,-0.00034
 706,-0.00011812,0.00123963,0.00016750,-0.00014998,0.00019190,-0.001114
 23,0.00002108,0.07868292,-0.03960639,0.00933528,-0.05093703,0.04369583
 ,-0.00001612,-0.00000066,-0.00001543,0.00000069,-0.00000435,0.00000740
 ,0.00001455,-0.00001044,-0.00000462,0.00000456,-0.00001541,0.00002142,
 0.00001233,0.00000222,-0.00000079,-0.00000182,0.00000469,0.00000770,-0
 .00001561,0.00000093,-0.00001328,0.00000124,-0.00000062,0.00000609,0.0
 0000253,-0.00000268,0.00000318,0.00000226,0.00000171,0.00000297,-0.000
 03701,-0.00003176,-0.00001400,-0.00000772,0.00001005,0.00000909,0.0000
 2899,0.00018552,0.00005232,0.00000483,-0.00000612,0.00000472,0.0000075
 4,0.00002043,0.00003119,0.00178006,0.00104634,0.00042806,-0.00049564,-
 0.00049294,-0.00068252,0.00006214,0.00017031,0.00001609,0.00027035,0.0
 0085656,0.00044925,0.00001018,0.00003899,0.00016696,-0.00046685,-0.000
 19143,0.00009896,0.00114042,-0.00019515,-0.00201281,-0.01846745,-0.008
 86129,-0.01853111,0.05266590,0.00205300,0.03288805,0.00003321,0.000008
 96,0.00000071,-0.00000235,0.00000490,0.00000126,-0.00001998,0.00002640
 ,-0.00000390,-0.00002459,0.00000116,0.00000187,-0.00002775,-0.00000425
 ,0.00000202,0.00000026,-0.00001016,-0.00000556,0.00004305,0.00000489,-
 0.00000004,-0.00000693,-0.00000182,-0.00000483,-0.00000766,0.00000353,
 0.00000229,-0.00000649,-0.00000551,0.00000213,0.00005816,0.00004991,-0
 .00001194,0.00000628,-0.00002064,0.00000459,-0.00007856,-0.00025365,0.
 00003355,-0.00000020,-0.00000668,0.00002300,-0.00000320,-0.00001274,-0
 .00001878,-0.00149057,-0.00093272,0.00019263,0.00030596,0.00055341,0.0
 0001593,-0.00003430,-0.00013680,0.00006824,-0.00030790,-0.00069089,-0.
 00000978,-0.00003597,-0.00012863,-0.00004366,0.00069480,0.00030497,-0.
 00011743,0.00083769,0.00050192,0.00014736,-0.06067423,-0.02120837,-0.0
 4656749,-0.03382470,-0.02428895,-0.03651936,0.09461065,0.00002521,-0.0
 0000266,0.00000214,-0.00000086,0.00001052,0.00000152,-0.00002189,0.000
 01595,-0.00000328,-0.00001025,0.00002089,-0.00000284,-0.00001894,-0.00
 000456,0.00000154,-0.00000031,-0.00000543,-0.00000486,0.00002995,-0.00
 000310,0.00000100,-0.00000441,0.00000094,-0.00000400,-0.00000499,0.000
 00498,0.00000125,-0.00000421,-0.00000215,0.00000117,0.00005194,0.00003
 947,-0.00000859,0.00000946,-0.00001252,0.00000249,-0.00003002,-0.00023
 517,0.00003247,-0.00000437,-0.00000167,0.00001708,-0.00000454,-0.00000
 778,-0.00001834,-0.00119252,-0.00098195,0.00018087,0.00020633,0.000373
 45,0.00012908,-0.00005901,-0.00009042,0.00002084,-0.00005830,-0.000338
 25,-0.00030537,-0.00003239,-0.00007367,-0.00003988,0.00059993,0.000317
 84,-0.00010295,0.00164967,0.00060493,-0.00022143,-0.05805546,-0.073062
 46,-0.08484138,0.01077182,0.00027721,0.00545204,0.04620940,0.07310002,
 0.00001150,0.00000143,-0.00001023,0.00000058,0.00000387,0.00000723,-0.
 00000686,0.00001371,-0.00000575,-0.00001337,0.00000266,0.00001226,-0.0
 0000801,-0.00000281,0.00000070,-0.00000076,-0.00000342,0.00000088,0.00
 001436,0.00000234,-0.00000974,-0.00000251,-0.00000092,0.00000105,-0.00
 000233,0.00000121,0.00000395,-0.00000157,-0.00000188,0.00000374,0.0000
 3806,0.00004833,-0.00002684,0.00000822,-0.00001377,0.00001187,-0.00003
 017,-0.00019983,0.00002513,0.00000961,-0.00000426,0.00003946,-0.000001
 11,-0.00000794,-0.00000617,-0.00099077,-0.00095545,0.00051156,0.000553
 11,0.00062308,-0.00042250,0.00004572,-0.00003913,0.00015098,-0.0005916
 0,-0.00096578,0.00033718,-0.00001026,-0.00009995,-0.00000907,0.0005023
 3,0.00031671,-0.00016328,0.00129999,0.00079958,-0.00060812,-0.07542360
 ,-0.06685193,-0.09139850,-0.00816648,-0.01240360,-0.01296141,0.0828158
 1,0.07970660,0.10449679,0.00004501,-0.00027791,0.00011273,0.00008027,0
 .00012187,-0.00005057,-0.00096726,-0.00172154,0.00043395,0.00046884,0.
 00177107,-0.00060226,0.00008212,-0.00002829,-0.00003372,-0.00002022,0.
 00006012,0.00000897,-0.00014684,-0.00008765,-0.00000077,0.00002491,0.0
 0003238,0.00001452,0.00003396,0.00001673,-0.00001796,0.00002399,0.0000
 3421,-0.00001357,-0.00007213,-0.00012986,0.00005497,0.00014215,0.00002
 862,-0.00001717,-0.00073148,-0.00087708,0.00017451,0.00004307,0.000082
 13,-0.00000241,0.00003518,0.00008351,-0.00005036,-0.00160539,-0.003420
 69,0.00043100,-0.00007527,0.00080947,-0.00002720,-0.00002732,-0.000101
 71,0.00008780,0.00013682,-0.00005238,-0.00002460,-0.00004027,-0.000118
 01,-0.00010050,0.00181022,0.00243042,-0.00033306,-0.00365522,0.0048062
 5,0.00009636,-0.00028459,0.00001638,-0.00001691,0.00036351,-0.00002247
 ,-0.00003640,0.00008582,0.00001542,0.00002928,0.14384952,-0.00022461,-
 0.00030195,0.00009976,0.00007058,-0.00015744,-0.00004718,-0.00137443,-
 0.00266101,0.00068348,0.00117513,0.00117673,-0.00067982,0.00019651,0.0
 0004961,-0.00001939,-0.00001099,0.00011040,0.00007099,-0.00041610,0.00
 002448,-0.00005979,0.00004251,-0.00000541,0.00005780,0.00006530,-0.000
 07161,-0.00002032,0.00005286,0.00003949,-0.00002033,-0.00067827,-0.000
 33654,0.00011969,0.00018610,0.00015674,-0.00003786,0.00100258,0.000430
 86,-0.00016527,-0.00012085,-0.00005099,-0.00015701,-0.00010245,0.00000
 069,0.00017122,-0.00283653,0.00106881,0.00010741,0.00099226,-0.0006019
 4,-0.00000768,-0.00008729,0.00010189,-0.00015624,-0.00028004,-0.000098
 40,0.00002619,-0.00006690,0.00013926,0.00014620,0.00135471,-0.00290584
 ,0.00062077,0.00518061,-0.00163281,-0.00034440,0.00039002,0.00024220,0
 .00000448,-0.00051065,-0.00022742,0.00007898,-0.00007638,-0.00013064,-
 0.00003399,-0.08050889,0.12548263,0.00008825,0.00010088,0.00014994,-0.
 00004048,0.00000780,-0.00011404,0.00042041,0.00087786,0.00014525,-0.00
 064738,-0.00086936,-0.00060960,-0.00007502,-0.00001093,-0.00002129,0.0
 0001664,-0.00003213,-0.00005484,0.00010650,-0.00001892,0.00012716,0.00
 000197,0.00001093,-0.00004599,-0.00001600,0.00002121,-0.00003157,-0.00
 001694,-0.00001338,-0.00002115,0.00023292,0.00009332,0.00004205,-0.000
 03227,-0.00005376,-0.00006443,-0.00056356,-0.00038591,0.00003106,0.000
 06601,0.00003763,0.00001383,0.00002839,0.00003371,-0.00012669,0.000504
 41,-0.00176755,-0.00053502,-0.00034802,0.00051152,0.00023610,0.0000184
 2,-0.00008601,0.00001974,0.00012651,0.00001355,-0.00008322,-0.00001034
 ,-0.00006918,-0.00014679,0.00027581,0.00148532,0.00075482,-0.00249049,
 0.00204157,0.00121164,-0.00016215,-0.00007201,0.00012948,0.00023940,0.
 00006360,-0.00014729,0.00004497,0.00004035,-0.00004907,-0.00969573,-0.
 10863407,0.18461695,0.00001114,0.00004696,-0.00004408,-0.00000323,-0.0
 0003389,0.00002173,0.00000248,-0.00006256,-0.00003463,0.00003101,0.000
 06111,0.00016458,-0.00001536,0.00000642,0.00001126,0.00000206,-0.00000
 993,0.00000491,0.00002559,0.00003193,-0.00002239,-0.00000908,-0.000011
 56,0.00000328,-0.00000762,-0.00000957,0.00000906,-0.00000430,-0.000007
 81,0.00000592,-0.00003584,0.00002743,-0.00000931,-0.00001328,-0.000012
 81,0.00000972,-0.00004065,0.00011644,-0.00000612,0.00001009,0.00000453
 ,0.00000777,0.00001565,0.00000491,-0.00000316,0.00068502,0.00045439,-0
 .00015583,-0.00008693,-0.00011850,0.00001025,0.00001171,0.00001514,-0.
 00000251,0.00000443,0.00002941,-0.00000301,0.00001360,0.00001672,0.000
 00207,-0.00039600,0.00000394,0.00000634,-0.00054915,-0.00045792,0.0003
 5923,0.00004556,-0.00005701,0.00002768,-0.00002638,0.00006037,-0.00002
 858,-0.00002198,0.00001954,-0.00001619,-0.02861972,-0.01799536,0.05511
 099,0.03184542,0.00008480,0.00004142,-0.00002891,-0.00001621,0.0000210
 3,0.00001391,-0.00006094,-0.00000620,-0.00005928,-0.00029786,-0.000321
 68,0.00026362,-0.00006271,-0.00001000,0.00000919,-0.00000036,-0.000023
 63,-0.00000992,0.00010825,-0.00000255,-0.00000032,-0.00001703,0.000000
 04,-0.00001158,-0.00001900,0.00001555,0.00000651,-0.00001482,-0.000010
 17,0.00000600,0.00009838,0.00010580,-0.00004019,-0.00002644,-0.0000425
 5,0.00001841,-0.00023197,-0.00014556,0.00005381,0.00003024,0.00001109,
 0.00003715,0.00003110,-0.00000343,-0.00002712,0.00085713,-0.00045470,0
 .00013765,-0.00029426,0.00017702,-0.00003026,0.00002853,-0.00002516,0.
 00004748,0.00008841,0.00003113,0.00000077,0.00002700,-0.00003960,-0.00
 002703,-0.00021092,0.00040644,-0.00028368,-0.00083424,0.00019832,-0.00
 023062,-0.00011784,-0.00008882,-0.00000432,0.00014061,0.00007647,-0.00
 001237,0.00002374,0.00004543,0.00000765,0.00573892,-0.04373571,0.06197
 379,-0.00333996,0.06346457,-0.00005275,-0.00006983,-0.00004190,0.00001
 108,-0.00000425,0.00002953,-0.00015057,-0.00034272,0.00003603,0.000683
 77,0.00090869,-0.00013077,0.00004758,0.00000796,-0.00000122,-0.0000079
 4,0.00002288,0.00002743,-0.00007421,-0.00000116,-0.00005272,0.00000385
 ,-0.00000159,0.00002408,0.00001180,-0.00000937,0.00001012,0.00001041,0
 .00001021,0.00000678,-0.00014428,-0.00008634,-0.00000794,0.00002052,0.
 00003557,0.00001525,0.00033906,0.00025151,-0.00003796,-0.00003896,-0.0
 0002895,-0.00002472,-0.00002525,-0.00001561,0.00007297,-0.00042388,0.0
 0114302,0.00016440,0.00025119,-0.00033827,-0.00011564,-0.00001329,0.00
 004976,-0.00002821,-0.00008637,-0.00001418,0.00004242,0.00000127,0.000
 04448,0.00008498,-0.00018215,-0.00070747,-0.00006647,0.00123858,-0.001
 11668,-0.00031526,0.00010374,0.00004089,-0.00007070,-0.00015520,-0.000
 03142,0.00008230,-0.00002677,-0.00002106,0.00002348,0.01762418,0.08488
 676,-0.15340511,-0.02540171,-0.09605280,0.17763153,0.00002334,0.000234
 14,-0.00007698,-0.00003048,-0.00004171,0.00001528,0.00016133,0.0002357
 1,-0.00005939,-0.00133058,-0.00177879,0.00033787,-0.00002463,0.0000069
 7,0.00000633,0.00000829,-0.00003362,-0.00000532,0.00008703,0.00004417,
 0.00001225,-0.00001071,-0.00001685,-0.00000806,-0.00001765,-0.00000609
 ,0.00000885,-0.00001384,-0.00001882,0.00000711,0.00002591,0.00003840,-
 0.00002959,-0.00015038,-0.00000132,0.00000471,0.00065815,0.00128016,-0
 .00023726,-0.00003087,-0.00005604,-0.00005504,-0.00002256,-0.00004884,
 0.00008697,0.00293888,0.01141748,-0.00149504,0.00012383,-0.00172367,0.
 00021353,0.00004461,0.00013383,-0.00020520,-0.00034930,0.00006652,0.00
 003602,0.00005901,0.00019305,0.00020257,-0.00348011,-0.00225817,0.0003
 8944,0.00139516,-0.00834497,0.00027226,0.00052847,0.00009528,0.0000455
 7,-0.00072354,-0.00010938,0.00008418,-0.00010813,-0.00008567,-0.000062
 72,-0.11098129,0.09458099,-0.04318406,-0.00287365,-0.00171247,0.006436
 70,0.11409481,0.00021531,0.00004791,-0.00001342,0.00000575,0.00012088,
 0.00001700,-0.00028332,-0.00009509,0.00001858,-0.00050029,0.00026801,0
 .00002168,-0.00009707,-0.00004737,-0.00000079,0.00000003,-0.00004469,-
 0.00003881,0.00019113,-0.00002753,0.00001948,-0.00001853,0.00000956,-0
 .00002744,-0.00002672,0.00004085,0.00000882,-0.00002142,-0.00001407,0.
 00000909,0.00039754,0.00023761,-0.00007239,-0.00001474,-0.00011252,0.0
 0002619,-0.00208581,-0.00108567,0.00037380,0.00019767,0.00021368,0.000
 14630,0.00018019,0.00017932,-0.00022572,0.00546825,-0.00633397,0.00022
 283,-0.00115499,0.00104599,-0.00003165,0.00005810,-0.00015454,0.000232
 52,0.00035519,0.00010313,-0.00003363,0.00002827,-0.00021040,-0.0002138
 0,0.00055951,0.00165248,-0.00039760,-0.00415734,0.00224896,0.00016355,
 -0.00050187,-0.00025152,-0.00003078,0.00069330,0.00026820,-0.00009694,
 0.00008500,0.00014135,0.00005761,0.07129827,-0.07610604,0.04469937,0.0
 2121784,-0.01968403,0.01144023,-0.09208976,0.09758906,-0.00004677,0.00
 000430,-0.00008400,0.00000746,-0.00000820,0.00005002,0.00007193,0.0000
 6043,-0.00014351,-0.00019801,-0.00033882,0.00044234,0.00001708,0.00000
 423,0.00001103,-0.00000500,0.00000263,0.00001834,-0.00001319,0.0000130
 8,-0.00004538,-0.00000348,-0.00000639,0.00001383,0.00000170,-0.0000070
 4,0.00001436,0.00000289,0.00000048,0.00001076,-0.00003379,-0.00000815,
 -0.00006877,-0.00000949,0.00001461,0.00004154,0.00033080,0.00016699,-0
 .00010440,-0.00002896,-0.00000818,0.00001686,-0.00002131,-0.00005335,0
 .00006180,-0.00047076,0.00052196,0.00126930,0.00014981,-0.00013619,-0.
 00005460,0.00000392,0.00003636,0.00002243,-0.00003439,-0.00000017,0.00
 006289,-0.00000462,0.00003874,0.00007441,-0.00021318,-0.00068062,-0.00
 105237,0.00135630,-0.00088296,-0.00210089,0.00005020,0.00002814,-0.000
 10703,-0.00006900,-0.00002275,0.00010815,-0.00002639,-0.00001648,0.000
 04425,-0.00804574,0.02330928,-0.03202177,-0.03002685,0.03424257,-0.023
 95327,0.03725928,-0.05627397,0.05747417\\0.00000015,0.00000095,-0.0000
 0221,-0.00000019,0.00000292,-0.00000390,-0.00000373,-0.00000380,-0.000
 00143,0.00000179,0.00000355,-0.00000212,0.00000009,0.00000040,-0.00000
 128,-0.00000022,0.00000062,0.00000051,-0.00000030,0.00000174,-0.000003
 08,0.00000057,0.00000037,-0.00000298,-0.00000010,0.00000242,-0.0000043
 2,-0.00000062,0.00000274,-0.00000204,-0.00000314,0.00000355,-0.0000006
 0,-0.00000059,0.00000060,0.00000304,0.00000465,0.00000175,0.00000664,-
 0.00000109,0.00000071,0.00000291,-0.00000094,0.00000184,0.00000240,0.0
 0001593,-0.00000854,0.00000418,0.00000002,0.00000349,-0.00000101,-0.00
 000013,0.00000070,0.00000661,-0.00000349,-0.00000168,0.00000573,-0.000
 00103,-0.00000163,0.00000553,-0.00001559,-0.00000240,-0.00000208,0.000
 00239,0.00000047,-0.00000302,0.00000396,-0.00000701,0.00000057,-0.0000
 0143,0.00000180,0.00000394,-0.00000208,-0.00000032,-0.00000033,0.00000
 476,-0.00000113,-0.00000813,0.00000059,-0.00000316,-0.00000144,-0.0000
 0023,-0.00000096,-0.00000209\\\@


 GOORD'S AXIOM:  A MEETING IS AN EVENT AT WHICH
 THE MINUTES ARE KEPT AND THE HOURS ARE LOST.
 Job cpu time:       0 days  0 hours  0 minutes 34.8 seconds.
 File lengths (MBytes):  RWF=    102 Int=      0 D2E=      0 Chk=     11 Scr=      1
 Normal termination of Gaussian 09 at Wed Aug  5 12:45:07 2020.
