 Entering Gaussian System, Link 0=g09
 Input=PM6_4H2O_cyclohexene_pm6_cpcmtoluene_3.com
 Output=PM6_4H2O_cyclohexene_pm6_cpcmtoluene_3.log
 Initial command:
 /apps/applications/gaussian/G09.D01/2/default/g09/l1.exe "/local/690765.1.40core-192G.q/Gau-312074.inp" -scrdir="/local/690765.1.40core-192G.q/"
 Entering Link 1 = /apps/applications/gaussian/G09.D01/2/default/g09/l1.exe PID=    312075.
  
 Copyright (c) 1988,1990,1992,1993,1995,1998,2003,2009,2013,
            Gaussian, Inc.  All Rights Reserved.
  
 This is part of the Gaussian(R) 09 program.  It is based on
 the Gaussian(R) 03 system (copyright 2003, Gaussian, Inc.),
 the Gaussian(R) 98 system (copyright 1998, Gaussian, Inc.),
 the Gaussian(R) 94 system (copyright 1995, Gaussian, Inc.),
 the Gaussian 92(TM) system (copyright 1992, Gaussian, Inc.),
 the Gaussian 90(TM) system (copyright 1990, Gaussian, Inc.),
 the Gaussian 88(TM) system (copyright 1988, Gaussian, Inc.),
 the Gaussian 86(TM) system (copyright 1986, Carnegie Mellon
 University), and the Gaussian 82(TM) system (copyright 1983,
 Carnegie Mellon University). Gaussian is a federally registered
 trademark of Gaussian, Inc.
  
 This software contains proprietary and confidential information,
 including trade secrets, belonging to Gaussian, Inc.
  
 This software is provided under written license and may be
 used, copied, transmitted, or stored only in accord with that
 written license.
  
 The following legend is applicable only to US Government
 contracts under FAR:
  
                    RESTRICTED RIGHTS LEGEND
  
 Use, reproduction and disclosure by the US Government is
 subject to restrictions as set forth in subparagraphs (a)
 and (c) of the Commercial Computer Software - Restricted
 Rights clause in FAR 52.227-19.
  
 Gaussian, Inc.
 340 Quinnipiac St., Bldg. 40, Wallingford CT 06492
  
  
 ---------------------------------------------------------------
 Warning -- This program may not be used in any manner that
 competes with the business of Gaussian, Inc. or will provide
 assistance to any competitor of Gaussian, Inc.  The licensee
 of this program is prohibited from giving any competitor of
 Gaussian, Inc. access to this program.  By using this program,
 the user acknowledges that Gaussian, Inc. is engaged in the
 business of creating and licensing software in the field of
 computational chemistry and represents and warrants to the
 licensee that it is not a competitor of Gaussian, Inc. and that
 it will not use this program in any manner prohibited above.
 ---------------------------------------------------------------
  

 Cite this work as:
 Gaussian 09, Revision D.01,
 M. J. Frisch, G. W. Trucks, H. B. Schlegel, G. E. Scuseria, 
 M. A. Robb, J. R. Cheeseman, G. Scalmani, V. Barone, B. Mennucci, 
 G. A. Petersson, H. Nakatsuji, M. Caricato, X. Li, H. P. Hratchian, 
 A. F. Izmaylov, J. Bloino, G. Zheng, J. L. Sonnenberg, M. Hada, 
 M. Ehara, K. Toyota, R. Fukuda, J. Hasegawa, M. Ishida, T. Nakajima, 
 Y. Honda, O. Kitao, H. Nakai, T. Vreven, J. A. Montgomery, Jr., 
 J. E. Peralta, F. Ogliaro, M. Bearpark, J. J. Heyd, E. Brothers, 
 K. N. Kudin, V. N. Staroverov, T. Keith, R. Kobayashi, J. Normand, 
 K. Raghavachari, A. Rendell, J. C. Burant, S. S. Iyengar, J. Tomasi, 
 M. Cossi, N. Rega, J. M. Millam, M. Klene, J. E. Knox, J. B. Cross, 
 V. Bakken, C. Adamo, J. Jaramillo, R. Gomperts, R. E. Stratmann, 
 O. Yazyev, A. J. Austin, R. Cammi, C. Pomelli, J. W. Ochterski, 
 R. L. Martin, K. Morokuma, V. G. Zakrzewski, G. A. Voth, 
 P. Salvador, J. J. Dannenberg, S. Dapprich, A. D. Daniels, 
 O. Farkas, J. B. Foresman, J. V. Ortiz, J. Cioslowski, 
 and D. J. Fox, Gaussian, Inc., Wallingford CT, 2013.
 
 ******************************************
 Gaussian 09:  ES64L-G09RevD.01 24-Apr-2013
                 7-Aug-2020 
 ******************************************
 %nprocshared=4
 Will use up to    4 processors via shared memory.
 %chk=PM6_4H2O_cyclohexene_pm6_cpcmtoluene_3.chk
 ----------------------------------------------------------------------
 # opt freq pm6 scrf=(cpcm,solvent=toluene) geom=connectivity empirical
 dispersion=gd3
 ----------------------------------------------------------------------
 1/14=-1,18=20,19=15,26=1,38=1,57=2/1,3;
 2/9=110,12=2,17=6,18=5,40=1/2;
 3/5=2,16=1,25=1,41=3900000,70=2101,71=1,72=13,124=31/1,2,3;
 4/35=1/1;
 5/5=2,35=1,38=5,53=13/2;
 6/7=2,8=2,9=2,10=2,28=1/1;
 7//1,2,3,16;
 1/14=-1,18=20,19=15,26=1/3(2);
 2/9=110/2;
 99//99;
 2/9=110/2;
 3/5=2,16=1,25=1,41=3900000,70=2105,71=1,72=13,124=31,135=20/1,2,3;
 4/5=5,16=3,35=1/1;
 5/5=2,35=1,38=5,53=13/2;
 7//1,2,3,16;
 1/14=-1,18=20,19=15,26=1/3(-5);
 2/9=110/2;
 6/7=2,8=2,9=2,10=2,19=2,28=1/1;
 99/9=1/99;
 -------------------
 Title Card Required
 -------------------
 Symbolic Z-matrix:
 Charge =  0 Multiplicity = 1
 C                     2.87918  -0.03308  -1.00846 
 C                     2.03714   0.77916  -0.02758 
 C                     0.79573  -0.0976    0.27116 
 C                     1.08618  -1.44339  -0.39168 
 H                     2.64877   0.88005   0.92109 
 H                     0.7354   -0.28358   1.38477 
 C                     2.83984  -2.4124   -1.96953 
 H                     2.35605  -2.43754  -2.96357 
 H                     3.92567  -2.25841  -2.11311 
 H                     2.68496  -3.39139  -1.48236 
 N                     2.27833  -1.32639  -1.14316 
 O                     0.45099  -2.47059  -0.29004 
 O                     3.89879   0.28072  -1.57386 
 C                    -0.56719   0.43447  -0.23113 
 H                    -1.19696  -0.43959  -0.56514 
 C                     1.76264   2.19939  -0.56848 
 H                     2.69047   2.54519  -1.09864 
 C                     0.61208   2.19578  -1.53873 
 H                     0.69036   2.8993   -2.36527 
 C                    -0.43418   1.38331  -1.39125 
 H                    -1.26587   1.36783  -2.09661 
 C                     1.47591   3.17166   0.5836 
 H                     2.31273   3.21622   1.29027 
 H                     1.30149   4.18642   0.21015 
 H                     0.57474   2.87307   1.1502 
 C                    -1.30376   1.10181   0.94103 
 H                    -1.41808   0.41571   1.80187 
 H                    -0.82526   2.05868   1.25551 
 C                    -3.60335   0.69517   0.21679 
 C                    -4.86608   1.41567  -0.09151 
 H                    -5.40063   0.92671  -0.93194 
 H                    -5.55576   1.39872   0.77229 
 H                    -4.708     2.47429  -0.35236 
 O                    -3.41524  -0.51076   0.20109 
 O                    -2.63013   1.58214   0.55533 
 O                    -1.47357  -1.98225   1.80884 
 H                    -0.87841  -2.36349   1.12509 
 H                    -2.26953  -1.70947   1.30266 
 O                    -5.66407  -1.61839  -1.06616 
 H                    -5.61131  -2.45239  -1.52942 
 H                    -4.8369   -1.53699  -0.55929 
 O                     1.78813  -4.54627  -0.07196 
 H                     1.88661  -5.33611  -0.58386 
 H                     0.83772  -4.31898  -0.08058 
 O                     3.69698   1.05294   2.54692 
 H                     3.41571   1.47497   3.35728 
 H                     4.36151   0.40494   2.79898 
 
 Add virtual bond connecting atoms O42        and H10        Dist= 3.84D+00.
 Add virtual bond connecting atoms H44        and O12        Dist= 3.59D+00.
 Add virtual bond connecting atoms H41        and O34        Dist= 3.61D+00.
 Add virtual bond connecting atoms O45        and H5         Dist= 3.67D+00.
 Add virtual bond connecting atoms H37        and O12        Dist= 3.67D+00.
 Add virtual bond connecting atoms H38        and O34        Dist= 3.76D+00.

 GradGradGradGradGradGradGradGradGradGradGradGradGradGradGradGradGradGrad
 Berny optimization.
 Initialization pass.
                           ----------------------------
                           !    Initial Parameters    !
                           ! (Angstroms and Degrees)  !
 --------------------------                            --------------------------
 ! Name  Definition              Value          Derivative Info.                !
 --------------------------------------------------------------------------------
 ! R1    R(1,2)                  1.5267         estimate D2E/DX2                !
 ! R2    R(1,11)                 1.4324         estimate D2E/DX2                !
 ! R3    R(1,13)                 1.2074         estimate D2E/DX2                !
 ! R4    R(2,3)                  1.5489         estimate D2E/DX2                !
 ! R5    R(2,5)                  1.1332         estimate D2E/DX2                !
 ! R6    R(2,16)                 1.5443         estimate D2E/DX2                !
 ! R7    R(3,4)                  1.528          estimate D2E/DX2                !
 ! R8    R(3,6)                  1.1306         estimate D2E/DX2                !
 ! R9    R(3,14)                 1.5469         estimate D2E/DX2                !
 ! R10   R(4,11)                 1.4141         estimate D2E/DX2                !
 ! R11   R(4,12)                 1.212          estimate D2E/DX2                !
 ! R12   R(5,45)                 1.9422         estimate D2E/DX2                !
 ! R13   R(7,8)                  1.1058         estimate D2E/DX2                !
 ! R14   R(7,9)                  1.1061         estimate D2E/DX2                !
 ! R15   R(7,10)                 1.1044         estimate D2E/DX2                !
 ! R16   R(7,11)                 1.4757         estimate D2E/DX2                !
 ! R17   R(10,42)                2.0316         estimate D2E/DX2                !
 ! R18   R(12,37)                1.9446         estimate D2E/DX2                !
 ! R19   R(12,44)                1.9            estimate D2E/DX2                !
 ! R20   R(14,15)                1.1279         estimate D2E/DX2                !
 ! R21   R(14,20)                1.5046         estimate D2E/DX2                !
 ! R22   R(14,26)                1.5368         estimate D2E/DX2                !
 ! R23   R(16,17)                1.1232         estimate D2E/DX2                !
 ! R24   R(16,18)                1.5051         estimate D2E/DX2                !
 ! R25   R(16,22)                1.5345         estimate D2E/DX2                !
 ! R26   R(18,19)                1.0882         estimate D2E/DX2                !
 ! R27   R(18,20)                1.3328         estimate D2E/DX2                !
 ! R28   R(20,21)                1.0906         estimate D2E/DX2                !
 ! R29   R(22,23)                1.0962         estimate D2E/DX2                !
 ! R30   R(22,24)                1.0953         estimate D2E/DX2                !
 ! R31   R(22,25)                1.1056         estimate D2E/DX2                !
 ! R32   R(26,27)                1.1067         estimate D2E/DX2                !
 ! R33   R(26,28)                1.1151         estimate D2E/DX2                !
 ! R34   R(26,35)                1.4624         estimate D2E/DX2                !
 ! R35   R(29,30)                1.4862         estimate D2E/DX2                !
 ! R36   R(29,34)                1.2206         estimate D2E/DX2                !
 ! R37   R(29,35)                1.3596         estimate D2E/DX2                !
 ! R38   R(30,31)                1.1096         estimate D2E/DX2                !
 ! R39   R(30,32)                1.1055         estimate D2E/DX2                !
 ! R40   R(30,33)                1.1017         estimate D2E/DX2                !
 ! R41   R(34,38)                1.9907         estimate D2E/DX2                !
 ! R42   R(34,41)                1.9111         estimate D2E/DX2                !
 ! R43   R(36,37)                0.9834         estimate D2E/DX2                !
 ! R44   R(36,38)                0.9819         estimate D2E/DX2                !
 ! R45   R(39,40)                0.9555         estimate D2E/DX2                !
 ! R46   R(39,41)                0.9735         estimate D2E/DX2                !
 ! R47   R(42,43)                0.9463         estimate D2E/DX2                !
 ! R48   R(42,44)                0.9772         estimate D2E/DX2                !
 ! R49   R(45,46)                0.956          estimate D2E/DX2                !
 ! R50   R(45,47)                0.9618         estimate D2E/DX2                !
 ! A1    A(2,1,11)             108.0244         estimate D2E/DX2                !
 ! A2    A(2,1,13)             128.9287         estimate D2E/DX2                !
 ! A3    A(11,1,13)            123.0147         estimate D2E/DX2                !
 ! A4    A(1,2,3)              105.3555         estimate D2E/DX2                !
 ! A5    A(1,2,5)              106.7096         estimate D2E/DX2                !
 ! A6    A(1,2,16)             111.2397         estimate D2E/DX2                !
 ! A7    A(3,2,5)              108.754          estimate D2E/DX2                !
 ! A8    A(3,2,16)             116.4656         estimate D2E/DX2                !
 ! A9    A(5,2,16)             107.8947         estimate D2E/DX2                !
 ! A10   A(2,3,4)              105.2204         estimate D2E/DX2                !
 ! A11   A(2,3,6)              109.0164         estimate D2E/DX2                !
 ! A12   A(2,3,14)             116.6683         estimate D2E/DX2                !
 ! A13   A(4,3,6)              107.0094         estimate D2E/DX2                !
 ! A14   A(4,3,14)             109.2414         estimate D2E/DX2                !
 ! A15   A(6,3,14)             109.2316         estimate D2E/DX2                !
 ! A16   A(3,4,11)             108.5366         estimate D2E/DX2                !
 ! A17   A(3,4,12)             127.622          estimate D2E/DX2                !
 ! A18   A(11,4,12)            123.8154         estimate D2E/DX2                !
 ! A19   A(8,7,9)              108.4192         estimate D2E/DX2                !
 ! A20   A(8,7,10)             108.3625         estimate D2E/DX2                !
 ! A21   A(8,7,11)             110.7111         estimate D2E/DX2                !
 ! A22   A(9,7,10)             108.5634         estimate D2E/DX2                !
 ! A23   A(9,7,11)             110.1073         estimate D2E/DX2                !
 ! A24   A(10,7,11)            110.6086         estimate D2E/DX2                !
 ! A25   A(7,10,42)            150.698          estimate D2E/DX2                !
 ! A26   A(1,11,4)             112.2319         estimate D2E/DX2                !
 ! A27   A(1,11,7)             123.8852         estimate D2E/DX2                !
 ! A28   A(4,11,7)             123.8828         estimate D2E/DX2                !
 ! A29   A(4,12,37)            111.8783         estimate D2E/DX2                !
 ! A30   A(4,12,44)            136.642          estimate D2E/DX2                !
 ! A31   A(37,12,44)            96.4597         estimate D2E/DX2                !
 ! A32   A(3,14,15)            108.7568         estimate D2E/DX2                !
 ! A33   A(3,14,20)            112.9158         estimate D2E/DX2                !
 ! A34   A(3,14,26)            108.9028         estimate D2E/DX2                !
 ! A35   A(15,14,20)           108.0432         estimate D2E/DX2                !
 ! A36   A(15,14,26)           107.1437         estimate D2E/DX2                !
 ! A37   A(20,14,26)           110.8924         estimate D2E/DX2                !
 ! A38   A(2,16,17)            107.5553         estimate D2E/DX2                !
 ! A39   A(2,16,18)            111.0674         estimate D2E/DX2                !
 ! A40   A(2,16,22)            110.6667         estimate D2E/DX2                !
 ! A41   A(17,16,18)           109.1442         estimate D2E/DX2                !
 ! A42   A(17,16,22)           108.2803         estimate D2E/DX2                !
 ! A43   A(18,16,22)           110.0399         estimate D2E/DX2                !
 ! A44   A(16,18,19)           115.6641         estimate D2E/DX2                !
 ! A45   A(16,18,20)           122.0197         estimate D2E/DX2                !
 ! A46   A(19,18,20)           122.3162         estimate D2E/DX2                !
 ! A47   A(14,20,18)           122.624          estimate D2E/DX2                !
 ! A48   A(14,20,21)           114.9792         estimate D2E/DX2                !
 ! A49   A(18,20,21)           122.391          estimate D2E/DX2                !
 ! A50   A(16,22,23)           111.5373         estimate D2E/DX2                !
 ! A51   A(16,22,24)           111.1482         estimate D2E/DX2                !
 ! A52   A(16,22,25)           111.466          estimate D2E/DX2                !
 ! A53   A(23,22,24)           107.6801         estimate D2E/DX2                !
 ! A54   A(23,22,25)           107.629          estimate D2E/DX2                !
 ! A55   A(24,22,25)           107.1672         estimate D2E/DX2                !
 ! A56   A(14,26,27)           111.9355         estimate D2E/DX2                !
 ! A57   A(14,26,28)           112.4608         estimate D2E/DX2                !
 ! A58   A(14,26,35)           112.0947         estimate D2E/DX2                !
 ! A59   A(27,26,28)           110.9122         estimate D2E/DX2                !
 ! A60   A(27,26,35)           108.3655         estimate D2E/DX2                !
 ! A61   A(28,26,35)           100.4704         estimate D2E/DX2                !
 ! A62   A(30,29,34)           127.3902         estimate D2E/DX2                !
 ! A63   A(30,29,35)           110.0956         estimate D2E/DX2                !
 ! A64   A(34,29,35)           122.5084         estimate D2E/DX2                !
 ! A65   A(29,30,31)           110.66           estimate D2E/DX2                !
 ! A66   A(29,30,32)           111.1345         estimate D2E/DX2                !
 ! A67   A(29,30,33)           113.1445         estimate D2E/DX2                !
 ! A68   A(31,30,32)           106.5311         estimate D2E/DX2                !
 ! A69   A(31,30,33)           108.2543         estimate D2E/DX2                !
 ! A70   A(32,30,33)           106.8133         estimate D2E/DX2                !
 ! A71   A(29,34,38)           132.5688         estimate D2E/DX2                !
 ! A72   A(29,34,41)           114.8975         estimate D2E/DX2                !
 ! A73   A(38,34,41)           108.9623         estimate D2E/DX2                !
 ! A74   A(26,35,29)           120.0411         estimate D2E/DX2                !
 ! A75   A(37,36,38)           103.8784         estimate D2E/DX2                !
 ! A76   A(12,37,36)           160.2351         estimate D2E/DX2                !
 ! A77   A(34,38,36)           156.788          estimate D2E/DX2                !
 ! A78   A(40,39,41)           106.1709         estimate D2E/DX2                !
 ! A79   A(34,41,39)           152.1406         estimate D2E/DX2                !
 ! A80   A(10,42,43)            93.0378         estimate D2E/DX2                !
 ! A81   A(10,42,44)           106.9167         estimate D2E/DX2                !
 ! A82   A(43,42,44)           106.8906         estimate D2E/DX2                !
 ! A83   A(12,44,42)           115.1629         estimate D2E/DX2                !
 ! A84   A(5,45,46)            126.165          estimate D2E/DX2                !
 ! A85   A(5,45,47)            122.1624         estimate D2E/DX2                !
 ! A86   A(46,45,47)           106.1745         estimate D2E/DX2                !
 ! A87   L(2,5,45,6,-1)        179.9999         estimate D2E/DX2                !
 ! A88   L(2,5,45,6,-2)        180.0            estimate D2E/DX2                !
 ! D1    D(11,1,2,3)            -6.5017         estimate D2E/DX2                !
 ! D2    D(11,1,2,5)           109.0004         estimate D2E/DX2                !
 ! D3    D(11,1,2,16)         -133.5561         estimate D2E/DX2                !
 ! D4    D(13,1,2,3)           175.5437         estimate D2E/DX2                !
 ! D5    D(13,1,2,5)           -68.9542         estimate D2E/DX2                !
 ! D6    D(13,1,2,16)           48.4893         estimate D2E/DX2                !
 ! D7    D(2,1,11,4)             2.4124         estimate D2E/DX2                !
 ! D8    D(2,1,11,7)          -177.5053         estimate D2E/DX2                !
 ! D9    D(13,1,11,4)         -179.4852         estimate D2E/DX2                !
 ! D10   D(13,1,11,7)            0.5972         estimate D2E/DX2                !
 ! D11   D(1,2,3,4)              7.9107         estimate D2E/DX2                !
 ! D12   D(1,2,3,6)            122.3944         estimate D2E/DX2                !
 ! D13   D(1,2,3,14)          -113.3436         estimate D2E/DX2                !
 ! D14   D(5,2,3,4)           -106.1762         estimate D2E/DX2                !
 ! D15   D(5,2,3,6)              8.3075         estimate D2E/DX2                !
 ! D16   D(5,2,3,14)           132.5694         estimate D2E/DX2                !
 ! D17   D(16,2,3,4)           131.716          estimate D2E/DX2                !
 ! D18   D(16,2,3,6)          -113.8003         estimate D2E/DX2                !
 ! D19   D(16,2,3,14)           10.4616         estimate D2E/DX2                !
 ! D20   D(1,2,45,46)         -176.8624         estimate D2E/DX2                !
 ! D21   D(1,2,45,47)          -26.7239         estimate D2E/DX2                !
 ! D22   D(3,2,45,46)          -63.6643         estimate D2E/DX2                !
 ! D23   D(3,2,45,47)           86.4741         estimate D2E/DX2                !
 ! D24   D(16,2,45,46)          63.5073         estimate D2E/DX2                !
 ! D25   D(16,2,45,47)        -146.3543         estimate D2E/DX2                !
 ! D26   D(1,2,16,17)          -37.5716         estimate D2E/DX2                !
 ! D27   D(1,2,16,18)           81.8            estimate D2E/DX2                !
 ! D28   D(1,2,16,22)         -155.6674         estimate D2E/DX2                !
 ! D29   D(3,2,16,17)         -158.2927         estimate D2E/DX2                !
 ! D30   D(3,2,16,18)          -38.9211         estimate D2E/DX2                !
 ! D31   D(3,2,16,22)           83.6116         estimate D2E/DX2                !
 ! D32   D(5,2,16,17)           79.1499         estimate D2E/DX2                !
 ! D33   D(5,2,16,18)         -161.4785         estimate D2E/DX2                !
 ! D34   D(5,2,16,22)          -38.9458         estimate D2E/DX2                !
 ! D35   D(2,3,4,11)            -6.7679         estimate D2E/DX2                !
 ! D36   D(2,3,4,12)           171.4142         estimate D2E/DX2                !
 ! D37   D(6,3,4,11)          -122.6399         estimate D2E/DX2                !
 ! D38   D(6,3,4,12)            55.5422         estimate D2E/DX2                !
 ! D39   D(14,3,4,11)          119.2211         estimate D2E/DX2                !
 ! D40   D(14,3,4,12)          -62.5968         estimate D2E/DX2                !
 ! D41   D(2,3,14,15)          144.0212         estimate D2E/DX2                !
 ! D42   D(2,3,14,20)           24.1077         estimate D2E/DX2                !
 ! D43   D(2,3,14,26)          -99.5342         estimate D2E/DX2                !
 ! D44   D(4,3,14,15)           24.9117         estimate D2E/DX2                !
 ! D45   D(4,3,14,20)          -95.0017         estimate D2E/DX2                !
 ! D46   D(4,3,14,26)          141.3564         estimate D2E/DX2                !
 ! D47   D(6,3,14,15)          -91.8266         estimate D2E/DX2                !
 ! D48   D(6,3,14,20)          148.2599         estimate D2E/DX2                !
 ! D49   D(6,3,14,26)           24.618          estimate D2E/DX2                !
 ! D50   D(3,4,11,1)             2.8535         estimate D2E/DX2                !
 ! D51   D(3,4,11,7)          -177.2288         estimate D2E/DX2                !
 ! D52   D(12,4,11,1)         -175.4135         estimate D2E/DX2                !
 ! D53   D(12,4,11,7)            4.5042         estimate D2E/DX2                !
 ! D54   D(3,4,12,37)          -10.954          estimate D2E/DX2                !
 ! D55   D(3,4,12,44)         -137.9562         estimate D2E/DX2                !
 ! D56   D(11,4,12,37)         166.9713         estimate D2E/DX2                !
 ! D57   D(11,4,12,44)          39.9692         estimate D2E/DX2                !
 ! D58   D(8,7,10,42)         -107.97           estimate D2E/DX2                !
 ! D59   D(9,7,10,42)          134.4712         estimate D2E/DX2                !
 ! D60   D(11,7,10,42)          13.5587         estimate D2E/DX2                !
 ! D61   D(8,7,11,1)           -96.7594         estimate D2E/DX2                !
 ! D62   D(8,7,11,4)            83.3324         estimate D2E/DX2                !
 ! D63   D(9,7,11,1)            23.1174         estimate D2E/DX2                !
 ! D64   D(9,7,11,4)          -156.7908         estimate D2E/DX2                !
 ! D65   D(10,7,11,1)          143.1083         estimate D2E/DX2                !
 ! D66   D(10,7,11,4)          -36.7999         estimate D2E/DX2                !
 ! D67   D(7,10,42,43)         154.3101         estimate D2E/DX2                !
 ! D68   D(7,10,42,44)          45.6318         estimate D2E/DX2                !
 ! D69   D(4,12,37,36)          14.539          estimate D2E/DX2                !
 ! D70   D(44,12,37,36)        161.0488         estimate D2E/DX2                !
 ! D71   D(4,12,44,42)          -2.1134         estimate D2E/DX2                !
 ! D72   D(37,12,44,42)       -133.883          estimate D2E/DX2                !
 ! D73   D(3,14,20,18)         -32.2701         estimate D2E/DX2                !
 ! D74   D(3,14,20,21)         148.5887         estimate D2E/DX2                !
 ! D75   D(15,14,20,18)       -152.5928         estimate D2E/DX2                !
 ! D76   D(15,14,20,21)         28.266          estimate D2E/DX2                !
 ! D77   D(26,14,20,18)         90.2666         estimate D2E/DX2                !
 ! D78   D(26,14,20,21)        -88.8746         estimate D2E/DX2                !
 ! D79   D(3,14,26,27)         -55.5994         estimate D2E/DX2                !
 ! D80   D(3,14,26,28)          70.0531         estimate D2E/DX2                !
 ! D81   D(3,14,26,35)        -177.6097         estimate D2E/DX2                !
 ! D82   D(15,14,26,27)         61.8728         estimate D2E/DX2                !
 ! D83   D(15,14,26,28)       -172.4747         estimate D2E/DX2                !
 ! D84   D(15,14,26,35)        -60.1375         estimate D2E/DX2                !
 ! D85   D(20,14,26,27)        179.5633         estimate D2E/DX2                !
 ! D86   D(20,14,26,28)        -54.7842         estimate D2E/DX2                !
 ! D87   D(20,14,26,35)         57.553          estimate D2E/DX2                !
 ! D88   D(2,16,18,19)        -145.3692         estimate D2E/DX2                !
 ! D89   D(2,16,18,20)          34.7092         estimate D2E/DX2                !
 ! D90   D(17,16,18,19)        -26.9526         estimate D2E/DX2                !
 ! D91   D(17,16,18,20)        153.1259         estimate D2E/DX2                !
 ! D92   D(22,16,18,19)         91.7361         estimate D2E/DX2                !
 ! D93   D(22,16,18,20)        -88.1854         estimate D2E/DX2                !
 ! D94   D(2,16,22,23)          58.5838         estimate D2E/DX2                !
 ! D95   D(2,16,22,24)         178.7657         estimate D2E/DX2                !
 ! D96   D(2,16,22,25)         -61.7505         estimate D2E/DX2                !
 ! D97   D(17,16,22,23)        -59.0688         estimate D2E/DX2                !
 ! D98   D(17,16,22,24)         61.1131         estimate D2E/DX2                !
 ! D99   D(17,16,22,25)       -179.4031         estimate D2E/DX2                !
 ! D100  D(18,16,22,23)       -178.2864         estimate D2E/DX2                !
 ! D101  D(18,16,22,24)        -58.1046         estimate D2E/DX2                !
 ! D102  D(18,16,22,25)         61.3793         estimate D2E/DX2                !
 ! D103  D(16,18,20,14)          1.616          estimate D2E/DX2                !
 ! D104  D(16,18,20,21)       -179.3059         estimate D2E/DX2                !
 ! D105  D(19,18,20,14)       -178.3004         estimate D2E/DX2                !
 ! D106  D(19,18,20,21)          0.7778         estimate D2E/DX2                !
 ! D107  D(14,26,35,29)         66.6092         estimate D2E/DX2                !
 ! D108  D(27,26,35,29)        -57.4174         estimate D2E/DX2                !
 ! D109  D(28,26,35,29)       -173.7648         estimate D2E/DX2                !
 ! D110  D(34,29,30,31)        -38.0882         estimate D2E/DX2                !
 ! D111  D(34,29,30,32)         80.0618         estimate D2E/DX2                !
 ! D112  D(34,29,30,33)       -159.773          estimate D2E/DX2                !
 ! D113  D(35,29,30,31)        142.777          estimate D2E/DX2                !
 ! D114  D(35,29,30,32)        -99.0729         estimate D2E/DX2                !
 ! D115  D(35,29,30,33)         21.0922         estimate D2E/DX2                !
 ! D116  D(30,29,34,38)       -145.9706         estimate D2E/DX2                !
 ! D117  D(30,29,34,41)          9.9184         estimate D2E/DX2                !
 ! D118  D(35,29,34,38)         33.0659         estimate D2E/DX2                !
 ! D119  D(35,29,34,41)       -171.0452         estimate D2E/DX2                !
 ! D120  D(30,29,35,26)        178.1523         estimate D2E/DX2                !
 ! D121  D(34,29,35,26)         -1.0325         estimate D2E/DX2                !
 ! D122  D(29,34,38,36)        -37.9255         estimate D2E/DX2                !
 ! D123  D(41,34,38,36)        165.1412         estimate D2E/DX2                !
 ! D124  D(29,34,41,39)         12.4929         estimate D2E/DX2                !
 ! D125  D(38,34,41,39)        173.944          estimate D2E/DX2                !
 ! D126  D(38,36,37,12)         84.5096         estimate D2E/DX2                !
 ! D127  D(37,36,38,34)        -86.4877         estimate D2E/DX2                !
 ! D128  D(40,39,41,34)        146.5107         estimate D2E/DX2                !
 ! D129  D(10,42,44,12)        -39.9909         estimate D2E/DX2                !
 ! D130  D(43,42,44,12)       -138.6318         estimate D2E/DX2                !
 --------------------------------------------------------------------------------
 Trust Radius=3.00D-01 FncErr=1.00D-07 GrdErr=1.00D-07
 Number of steps in this run=    278 maximum allowed number of steps=    282.
 GradGradGradGradGradGradGradGradGradGradGradGradGradGradGradGradGradGrad

                          Input orientation:                          
 ---------------------------------------------------------------------
 Center     Atomic      Atomic             Coordinates (Angstroms)
 Number     Number       Type             X           Y           Z
 ---------------------------------------------------------------------
      1          6           0        2.879178   -0.033080   -1.008458
      2          6           0        2.037139    0.779163   -0.027577
      3          6           0        0.795725   -0.097604    0.271164
      4          6           0        1.086175   -1.443386   -0.391682
      5          1           0        2.648769    0.880046    0.921092
      6          1           0        0.735403   -0.283581    1.384774
      7          6           0        2.839838   -2.412403   -1.969528
      8          1           0        2.356054   -2.437537   -2.963572
      9          1           0        3.925672   -2.258406   -2.113109
     10          1           0        2.684957   -3.391386   -1.482360
     11          7           0        2.278334   -1.326391   -1.143161
     12          8           0        0.450987   -2.470587   -0.290043
     13          8           0        3.898787    0.280716   -1.573855
     14          6           0       -0.567194    0.434466   -0.231133
     15          1           0       -1.196960   -0.439592   -0.565140
     16          6           0        1.762635    2.199389   -0.568476
     17          1           0        2.690466    2.545190   -1.098644
     18          6           0        0.612075    2.195775   -1.538732
     19          1           0        0.690360    2.899296   -2.365270
     20          6           0       -0.434176    1.383314   -1.391246
     21          1           0       -1.265872    1.367828   -2.096606
     22          6           0        1.475907    3.171656    0.583604
     23          1           0        2.312726    3.216222    1.290268
     24          1           0        1.301493    4.186422    0.210150
     25          1           0        0.574739    2.873072    1.150197
     26          6           0       -1.303758    1.101811    0.941034
     27          1           0       -1.418075    0.415706    1.801868
     28          1           0       -0.825256    2.058678    1.255510
     29          6           0       -3.603345    0.695173    0.216785
     30          6           0       -4.866082    1.415666   -0.091512
     31          1           0       -5.400627    0.926707   -0.931944
     32          1           0       -5.555761    1.398723    0.772287
     33          1           0       -4.708002    2.474290   -0.352361
     34          8           0       -3.415243   -0.510761    0.201089
     35          8           0       -2.630126    1.582138    0.555325
     36          8           0       -1.473565   -1.982253    1.808844
     37          1           0       -0.878405   -2.363488    1.125094
     38          1           0       -2.269528   -1.709469    1.302661
     39          8           0       -5.664066   -1.618390   -1.066164
     40          1           0       -5.611308   -2.452389   -1.529420
     41          1           0       -4.836902   -1.536992   -0.559288
     42          8           0        1.788135   -4.546272   -0.071964
     43          1           0        1.886608   -5.336110   -0.583858
     44          1           0        0.837725   -4.318981   -0.080582
     45          8           0        3.696979    1.052938    2.546921
     46          1           0        3.415712    1.474965    3.357275
     47          1           0        4.361515    0.404936    2.798984
 ---------------------------------------------------------------------
                    Distance matrix (angstroms):
                    1          2          3          4          5
     1  C    0.000000
     2  C    1.526727   0.000000
     3  C    2.445889   1.548895   0.000000
     4  C    2.363099   2.444715   1.528023   0.000000
     5  H    2.147103   1.133244   2.193622   3.092477   0.000000
     6  H    3.222744   2.195148   1.130643   2.150345   2.286919
     7  C    2.566395   3.821203   3.815415   2.550280   4.385477
     8  H    3.142856   4.366799   4.286424   3.035712   5.116899
     9  H    2.695826   4.140390   4.488919   3.419110   4.548268
    10  H    3.397135   4.464251   4.182469   2.745976   4.901329
    11  N    1.432415   2.395007   2.389218   1.414090   3.044130
    12  O    3.514779   3.625692   2.462691   1.211997   4.186148
    13  O    1.207371   2.470862   3.629906   3.504404   2.854208
    14  C    3.563750   2.634920   1.546916   2.507136   3.445081
    15  H    4.120277   3.497676   2.187957   2.500079   4.328968
    16  C    2.534595   1.544334   2.629845   3.709267   2.178236
    17  H    2.586740   2.166304   3.528566   4.356866   2.617972
    18  C    3.223157   2.514197   2.927292   3.844995   3.453983
    19  H    3.902652   3.431266   3.992906   4.786502   4.325842
    20  C    3.623674   2.886519   2.543498   3.361670   3.886481
    21  H    4.508664   3.941737   3.464680   4.042501   4.966774
    22  C    3.843717   2.532301   3.353853   4.733042   2.596340
    23  H    4.020320   2.784227   3.784350   5.103463   2.388919
    24  H    4.666722   3.493866   4.314209   5.665978   3.640428
    25  H    4.291381   2.812511   3.105873   4.612024   2.885523
    26  C    4.752415   3.493408   2.509014   3.737103   3.958794
    27  H    5.154195   3.926509   2.739973   3.813024   4.186956
    28  H    4.819111   3.387739   2.871597   4.316395   3.683729
    29  C    6.637370   5.646399   4.470265   5.189920   6.294375
    30  C    7.932762   6.932798   5.871761   6.610117   7.601660
    31  H    8.335599   7.493998   6.394643   6.927324   8.260066
    32  H    8.738954   7.660011   6.544577   7.317631   8.222255
    33  H    8.017647   6.962461   6.106917   6.994442   7.634486
    34  O    6.427357   5.607554   4.231768   4.635076   6.262986
    35  O    5.950359   4.771573   3.826060   4.884825   5.337926
    36  O    5.539209   4.829379   3.326566   3.418327   5.096518
    37  H    4.909407   4.439066   2.943830   2.647031   4.796153
    38  H    5.887336   5.148806   3.613568   3.768599   5.571430
    39  O    8.689278   8.132372   6.769796   6.786111   8.904751
    40  H    8.843801   8.437843   7.059546   6.867956   9.237911
    41  H    7.874096   7.273220   5.872646   5.926187   8.004303
    42  O    4.736697   5.331438   4.570915   3.197322   5.583169
    43  H    5.411803   6.142367   5.418767   3.978810   6.440991
    44  H    4.837089   5.237602   4.236214   2.903025   5.595812
    45  O    3.806436   3.075396   3.862653   4.656535   1.942152
    46  H    4.649913   3.720461   4.342970   5.291332   2.622426
    47  H    4.109233   3.678616   4.399691   4.931987   2.585673
                    6          7          8          9         10
     6  H    0.000000
     7  C    4.495762   0.000000
     8  H    5.116068   1.105804   0.000000
     9  H    5.129614   1.106059   1.794178   0.000000
    10  H    4.656143   1.104413   1.792204   1.794676   0.000000
    11  N    3.139832   1.475666   2.134147   2.126775   2.131807
    12  O    2.769278   2.920730   3.283006   3.929634   2.694460
    13  O    4.367942   2.920757   3.420561   2.595893   3.868603
    14  C    2.196248   4.768076   4.925444   5.565900   5.174862
    15  H    2.749642   4.707444   4.729500   5.652048   4.962223
    16  C    3.321977   4.938820   5.252591   5.190044   5.739567
    17  H    4.241648   5.035720   5.330793   5.062550   5.948967
    18  C    3.835271   5.136518   5.151622   5.581179   5.959563
    19  H    4.918899   5.743780   5.622658   6.093662   6.658125
    20  C    3.442781   5.045894   4.985629   5.726385   5.703951
    21  H    4.341919   5.582396   5.324545   6.332612   6.215824
    22  C    3.623380   6.289714   6.694786   6.539051   6.985952
    23  H    3.839987   6.525759   7.075452   6.645007   7.175410
    24  H    4.656300   7.117724   7.420340   7.336188   7.886808
    25  H    3.169432   6.542141   6.949730   6.943341   7.115252
    26  C    2.504874   6.163640   6.416164   6.925734   6.478542
    27  H    2.302268   6.352279   6.715241   7.143777   6.489605
    28  H    2.817542   6.619996   6.938107   7.249560   7.037096
    29  C    4.598575   7.480080   7.446004   8.416539   7.689590
    30  C    6.036845   8.806944   8.674973   9.740667   9.058719
    31  H    6.669546   8.951620   8.695502   9.925722   9.182895
    32  H    6.540950   9.619164   9.553552  10.563980   9.794795
    33  H    6.344616   9.135912   8.991404  10.001948   9.504678
    34  O    4.322104   6.888676   6.858237   7.892959   6.953017
    35  O    3.936455   7.228537   7.307696   8.052876   7.558982
    36  O    2.818663   5.750354   6.135896   6.679052   5.487348
    37  H    2.645340   4.837810   5.213866   5.794494   4.533535
    38  H    3.327087   6.107942   6.334575   7.095725   5.927234
    39  O    6.981548   8.588533   8.282118   9.667926   8.545345
    40  H    7.312797   8.462692   8.095423   9.556794   8.349368
    41  H    6.033324   7.854136   7.637420   8.928466   7.801872
    42  O    4.626107   3.043062   3.623629   3.737602   2.031568
    43  H    5.543359   3.372950   3.779569   3.996080   2.286180
    44  H    4.294437   3.348375   3.762551   4.232322   2.497535
    45  O    3.450768   5.756873   6.659356   5.721292   6.083692
    46  H    3.763947   6.619523   7.508905   6.642531   6.901988
    47  H    3.952560   5.743832   6.731165   5.604642   5.962618
                   11         12         13         14         15
    11  N    0.000000
    12  O    2.318662   0.000000
    13  O    2.322533   4.594036   0.000000
    14  C    3.468349   3.078879   4.665997   0.000000
    15  H    3.632931   2.629895   5.244329   1.127893   0.000000
    16  C    3.609340   4.858665   3.042242   2.942254   3.965279
    17  H    3.893710   5.552218   2.610308   3.977446   4.930074
    18  C    3.916446   4.833230   3.804098   2.490522   3.341504
    19  H    4.676713   5.761902   4.216314   3.494477   4.236817
    20  C    3.842103   4.104719   4.474778   1.504616   2.141793
    21  H    4.552941   4.576538   5.303658   2.199842   2.370001
    22  C    4.884469   5.800744   4.345401   3.511448   4.637342
    23  H    5.153454   6.188962   4.397270   4.283313   5.396796
    24  H    5.759928   6.729734   5.018282   4.214724   5.314447
    25  H    5.079096   5.535729   5.018970   3.026365   4.129775
    26  C    4.803271   4.166138   5.836552   1.536832   2.157751
    27  H    5.037017   4.024944   6.299425   2.203961   2.526490
    28  H    5.181176   4.952956   5.786453   2.216928   3.113564
    29  C    6.366343   5.168802   7.723998   3.080067   2.773047
    30  C    7.724476   6.588900   8.961494   4.411653   4.138691
    31  H    8.005467   6.796693   9.343899   4.908718   4.435328
    32  H    8.512827   7.223650   9.805243   5.179039   4.916021
    33  H    7.992461   7.146388   8.965525   4.617561   4.567647
    34  O    5.906698   4.362323   7.567820   3.031774   2.347967
    35  O    5.952930   5.160667   6.989550   2.488243   2.719706
    36  O    4.818842   2.889238   6.739870   3.289916   2.844664
    37  H    4.023127   1.944573   6.090788   3.124860   2.580648
    38  H    5.178015   3.243025   7.091071   3.137981   2.500334
    39  O    7.948139   6.222739   9.762813   5.557841   4.647109
    40  H    7.978942   6.187714   9.895137   5.955046   4.946479
    41  H    7.142258   5.376417   8.980293   4.714312   3.801776
    42  O    3.428614   2.478707   5.478170   5.511865   5.100866
    43  H    4.067446   3.218471   6.047950   6.280534   5.786591
    44  H    3.487122   1.900000   5.723389   4.959004   4.407312
    45  O    4.614159   5.567770   4.197362   5.126720   5.988590
    46  H    5.421729   6.136767   5.096630   5.461030   6.350402
    47  H    4.783058   5.753516   4.399008   5.785728   6.551885
                   16         17         18         19         20
    16  C    0.000000
    17  H    1.123177   0.000000
    18  C    1.505058   2.153016   0.000000
    19  H    2.206380   2.393775   1.088226   0.000000
    20  C    2.483729   3.346485   1.332849   2.124030   0.000000
    21  H    3.492639   4.246730   2.126830   2.498883   1.090638
    22  C    1.534537   2.167388   2.490554   3.063841   3.278203
    23  H    2.188945   2.509955   3.454963   4.011916   4.253885
    24  H    2.183394   2.517108   2.737985   2.943292   3.665301
    25  H    2.195173   3.105011   2.773169   3.517466   3.113876
    26  C    3.589716   4.711417   3.319098   4.259003   2.504984
    27  H    4.349365   5.461482   4.295319   5.289495   3.478548
    28  H    3.169212   4.258995   3.145235   4.014197   2.759416
    29  C    5.627881   6.690663   4.806601   5.473671   3.619797
    30  C    6.691906   7.706592   5.719547   6.184269   4.618674
    31  H    7.284514   8.253064   6.175056   6.560919   5.008501
    32  H    7.483157   8.533172   6.634629   7.149127   5.559833
    33  H    6.480079   7.436349   5.457863   5.777088   4.531567
    34  O    5.894706   6.950383   5.154765   5.922049   3.874250
    35  O    4.576055   5.654360   3.908132   4.614153   2.941235
    36  O    5.797480   6.803703   5.745614   6.777560   4.758986
    37  H    5.537429   6.463511   5.486746   6.506962   4.535177
    38  H    5.919347   6.962035   5.623885   6.592069   4.493435
    39  O    8.365346   9.334595   7.359424   7.904169   6.038845
    40  H    8.771402   9.699527   7.767626   8.309645   6.444719
    41  H    7.583833   8.579999   6.677141   7.313880   5.348302
    42  O    6.763957   7.221988   6.999266   7.867709   6.468320
    43  H    7.536535   7.938897   7.698410   8.510367   7.154619
    44  H    6.601715   7.182335   6.679758   7.572651   5.987632
    45  O    3.842100   4.065714   5.245500   6.048009   5.717058
    46  H    4.320761   4.639674   5.687779   6.496444   6.113795
    47  H    4.616712   4.750221   6.006762   6.809459   6.443128
                   21         22         23         24         25
    21  H    0.000000
    22  C    4.237296   0.000000
    23  H    5.262494   1.096187   0.000000
    24  H    4.456115   1.095280   1.769332   0.000000
    25  H    4.024343   1.105569   1.777068   1.771087   0.000000
    26  C    3.049501   3.484042   4.203767   4.103212   2.590341
    27  H    4.015943   4.177865   4.692920   4.914053   3.230268
    28  H    3.450811   2.643015   3.344854   3.184829   1.623057
    29  C    3.356788   5.662714   6.519812   6.020490   4.803216
    30  C    4.121189   6.615142   7.529051   6.768092   5.767877
    31  H    4.318243   7.390765   8.347210   7.539797   6.620321
    32  H    5.160877   7.254188   8.092261   7.423557   6.316609
    33  H    4.014338   6.293098   7.248401   6.273902   5.506729
    34  O    3.664464   6.134318   6.919996   6.656666   5.317056
    35  O    2.989959   4.403053   5.257581   4.728538   3.505930
    36  O    5.149633   6.063281   6.452059   6.950491   5.310701
    37  H    4.944917   6.039356   6.429912   6.963505   5.434503
    38  H    4.693836   6.194409   6.727528   6.979062   5.395626
    39  O    5.415110   8.754741   9.620575   9.156628   8.000511
    40  H    5.813654   9.291037  10.142687   9.740982   8.591162
    41  H    4.853203   7.957960   8.782430   8.427894   7.187271
    42  O    6.957206   7.752011   7.898556   8.750792   7.616605
    43  H    7.561040   8.597309   8.765632   9.573475   8.492268
    44  H    6.389778   7.547056   7.799624   8.522997   7.301343
    45  O    6.803778   3.643726   2.859219   4.584493   3.874546
    46  H    7.188430   3.786140   2.919088   4.661150   3.859666
    47  H    7.520734   4.570490   3.791713   5.510484   4.811431
                   26         27         28         29         30
    26  C    0.000000
    27  H    1.106727   0.000000
    28  H    1.115103   1.830109   0.000000
    29  C    2.444993   2.714037   3.264334   0.000000
    30  C    3.722205   4.058763   4.307692   1.486157   0.000000
    31  H    4.508109   4.857527   5.196184   2.145556   1.109570
    32  H    4.265696   4.375706   4.800700   2.148370   1.105483
    33  H    3.891715   4.438704   4.222996   2.170127   1.101688
    34  O    2.757948   2.722042   3.797611   1.220617   2.429335
    35  O    1.462442   2.093681   1.993716   1.359585   2.333583
    36  O    3.208330   2.398611   4.129843   3.773490   5.163950
    37  H    3.496155   2.910874   4.424408   4.195918   5.627051
    38  H    2.994458   2.343192   4.035725   2.956433   4.295612
    39  O    5.517302   5.512857   6.505773   3.353372   3.285152
    40  H    6.106592   6.075084   7.142258   4.121686   4.193422
    41  H    4.658042   4.590911   5.684685   2.665804   2.989625
    42  O    6.518191   6.197762   7.226158   7.524904   8.934410
    43  H    7.345104   7.049539   8.088286   8.194937   9.561784
    44  H    5.917316   5.572209   6.724967   6.704720   8.088245
    45  O    5.252488   5.208161   4.809352   7.671523   8.967659
    46  H    5.315154   5.187178   4.769061   7.729031   8.971386
    47  H    6.002744   5.864982   5.658601   8.378006   9.722401
                   31         32         33         34         35
    31  H    0.000000
    32  H    1.775181   0.000000
    33  H    1.791831   1.772110   0.000000
    34  O    2.700338   2.924759   3.299706   0.000000
    35  O    3.212045   2.939397   2.436678   2.263210   0.000000
    36  O    5.603194   5.400905   5.915502   2.918952   3.951433
    37  H    5.958799   6.013016   6.344508   3.274436   4.354438
    38  H    4.663332   4.554282   5.117528   1.990735   3.394587
    39  O    2.562213   3.534771   4.263051   2.808910   4.698659
    40  H    3.437972   4.486870   5.145250   3.404010   5.432404
    41  H    2.554696   3.302767   4.018684   1.911135   3.980100
    42  O    9.075867   9.486228   9.569049   6.590527   7.581024
    43  H    9.614980  10.128473  10.224716   7.211779   8.340311
    44  H    8.195065   8.619523   8.773681   5.715734   6.874123
    45  O    9.740887   9.427730   9.003876   7.650607   6.654229
    46  H    9.819665   9.336772   8.986366   7.782452   6.664425
    47  H   10.463818  10.170913   9.821881   8.250183   7.436589
                   36         37         38         39         40
    36  O    0.000000
    37  H    0.983397   0.000000
    38  H    0.981931   1.547415   0.000000
    39  O    5.094935   5.315951   4.140352   0.000000
    40  H    5.337223   5.427220   4.442984   0.955481   0.000000
    41  H    4.137432   4.380632   3.176163   0.973524   1.542340
    42  O    4.555252   3.648003   5.138256   8.068223   7.826894
    43  H    5.316403   4.404804   5.829661   8.430109   8.088800
    44  H    3.791080   2.867526   4.286949   7.108998   6.868284
    45  O    6.040833   5.884530   6.691658  10.383619  10.749329
    46  H    6.185065   6.177038   6.832570  10.563050  10.990495
    47  H    6.381787   6.158152   7.119018  10.933686  11.240845
                   41         42         43         44         45
    41  H    0.000000
    42  O    7.292761   0.000000
    43  H    7.722661   0.946349   0.000000
    44  H    6.337982   0.977248   1.545314   0.000000
    45  O    9.443696   6.469421   7.341604   6.628470   0.000000
    46  H    9.618575   7.117864   8.016323   7.213507   0.955977
    47  H    9.982983   6.275276   7.108333   6.559298   0.961795
                   46         47
    46  H    0.000000
    47  H    1.533360   0.000000
 Stoichiometry    C13H25NO8
 Framework group  C1[X(C13H25NO8)]
 Deg. of freedom   135
 Full point group                 C1      NOp   1
 Largest Abelian subgroup         C1      NOp   1
 Largest concise Abelian subgroup C1      NOp   1
                         Standard orientation:                         
 ---------------------------------------------------------------------
 Center     Atomic      Atomic             Coordinates (Angstroms)
 Number     Number       Type             X           Y           Z
 ---------------------------------------------------------------------
      1          6           0       -2.886991   -0.119865   -0.814633
      2          6           0       -1.969945   -1.006563    0.024230
      3          6           0       -0.770022   -0.106478    0.410372
      4          6           0       -1.155900    1.297324   -0.053624
      5          1           0       -2.544041   -1.271643    0.964649
      6          1           0       -0.684115   -0.070439    1.537170
      7          6           0       -3.010687    2.366164   -1.439725
      8          1           0       -2.561443    2.554919   -2.432374
      9          1           0       -4.090391    2.168975   -1.576548
     10          1           0       -2.894628    3.277241   -0.826375
     11          7           0       -2.363422    1.213098   -0.784684
     12          8           0       -0.575666    2.337017    0.172878
     13          8           0       -3.905393   -0.413785   -1.392744
     14          6           0        0.603332   -0.483478   -0.193547
     15          1           0        1.172554    0.463696   -0.419360
     16          6           0       -1.634787   -2.321214   -0.713555
     17          1           0       -2.558686   -2.646131   -1.263432
     18          6           0       -0.518179   -2.117415   -1.701912
     19          1           0       -0.584042   -2.705378   -2.615256
     20          6           0        0.485656   -1.271932   -1.469620
     21          1           0        1.291967   -1.111338   -2.186254
     22          6           0       -1.257502   -3.422396    0.286375
     23          1           0       -2.067271   -3.612229    1.000422
     24          1           0       -1.039283   -4.364788   -0.227353
     25          1           0       -0.356415   -3.150710    0.866472
     26          6           0        1.413275   -1.259156    0.857246
     27          1           0        1.517172   -0.690943    1.801271
     28          1           0        0.998964   -2.276591    1.048623
     29          6           0        3.662161   -0.622079    0.139864
     30          6           0        4.952257   -1.217746   -0.295447
     31          1           0        5.431419   -0.588180   -1.073390
     32          1           0        5.667513   -1.277553    0.545342
     33          1           0        4.844740   -2.238553   -0.695584
     34          8           0        3.407102    0.561479    0.294912
     35          8           0        2.751057   -1.603011    0.376785
     36          8           0        1.439868    1.682814    2.136888
     37          1           0        0.802691    2.117511    1.526877
     38          1           0        2.232938    1.529119    1.578671
     39          8           0        5.548915    1.962627   -0.862413
     40          1           0        5.435059    2.847269   -1.205034
     41          1           0        4.744360    1.764115   -0.351497
     42          8           0       -2.018047    4.280729    0.707210
     43          1           0       -2.176649    5.125601    0.311468
     44          1           0       -1.057277    4.113515    0.644158
     45          8           0       -3.527925   -1.725936    2.576339
     46          1           0       -3.197639   -2.236816    3.313770
     47          1           0       -4.218854   -1.158818    2.931367
 ---------------------------------------------------------------------
 Rotational constants (GHZ):      0.3145639      0.1745304      0.1377316
 Standard basis: VSTO-6G (5D, 7F)
 There are   113 symmetry adapted cartesian basis functions of A   symmetry.
 There are   113 symmetry adapted basis functions of A   symmetry.
   113 basis functions,   678 primitive gaussians,   113 cartesian basis functions
    65 alpha electrons       65 beta electrons
       nuclear repulsion energy      1210.1598051935 Hartrees.
 Integral buffers will be    131072 words long.
 Regular integral format.
 Two-electron integral symmetry is turned off.
 Nuclear repulsion after empirical dispersion term =     1210.1410964897 Hartrees.
 ------------------------------------------------------------------------------
 Polarizable Continuum Model (PCM)
 =================================
 Model                : C-PCM.
 Atomic radii         : UFF (Universal Force Field).
 Polarization charges : Total charges.
 Charge compensation  : None.
 Solution method      : On-the-fly selection.
 Cavity type          : Scaled VdW (van der Waals Surface) (Alpha=1.100).
 Cavity algorithm     : GePol (No added spheres)
                        Default sphere list used, NSphG=   47.
                        Lebedev-Laikov grids with approx.  5.0 points / Ang**2.
                        Smoothing algorithm: Karplus/York (Gamma=1.0000).
                        Polarization charges: spherical gaussians, with
                                              point-specific exponents (IZeta= 3).
                        Self-potential: point-specific (ISelfS= 7).
                        Self-field    : sphere-specific E.n sum rule (ISelfD= 2).
 1st derivatives      : Analytical E(r).r(x)/FMM algorithm (CHGder, D1EAlg=3).
                        Cavity 1st derivative terms included.
 Solvent              : Toluene, Eps=   2.374100 Eps(inf)=   2.238315
 ------------------------------------------------------------------------------
 Do NDO integrals.
 One-electron integrals computed using PRISM.
 NBasis=   113 RedAO= F EigKep=  0.00D+00  NBF=   113
 NBsUse=   113 1.00D-04 EigRej=  0.00D+00 NBFU=   113
 Simple Huckel Guess.
 Overlap will be assumed to be unity.
 Keep J ints in memory in canonical form, NReq=15442520.
 Requested convergence on RMS density matrix=1.00D-08 within 128 cycles.
 Requested convergence on MAX density matrix=1.00D-06.
 Requested convergence on             energy=1.00D-06.
 No special actions if energy rises.
 Inv3:  Mode=2 IEnd=    22191122.
 Iteration    1 A*A^-1 deviation from unit magnitude is 1.07D-14 for   3318.
 Iteration    1 A*A^-1 deviation from orthogonality  is 2.74D-15 for   3315   2583.
 Iteration    1 A^-1*A deviation from unit magnitude is 1.09D-14 for   3318.
 Iteration    1 A^-1*A deviation from orthogonality  is 4.21D-15 for   3328   2614.
 Error on total polarization charges = -0.00025
 SCF Done:  E(RPM6D3) = -0.689732250783     A.U. after   15 cycles
            NFock= 14  Conv=0.72D-08     -V/T= 0.9919

 **********************************************************************

            Population analysis using the SCF density.

 **********************************************************************

 Orbital symmetries:
       Occupied  (A) (A) (A) (A) (A) (A) (A) (A) (A) (A) (A) (A)
                 (A) (A) (A) (A) (A) (A) (A) (A) (A) (A) (A) (A)
                 (A) (A) (A) (A) (A) (A) (A) (A) (A) (A) (A) (A)
                 (A) (A) (A) (A) (A) (A) (A) (A) (A) (A) (A) (A)
                 (A) (A) (A) (A) (A) (A) (A) (A) (A) (A) (A) (A)
                 (A) (A) (A) (A) (A)
       Virtual   (A) (A) (A) (A) (A) (A) (A) (A) (A) (A) (A) (A)
                 (A) (A) (A) (A) (A) (A) (A) (A) (A) (A) (A) (A)
                 (A) (A) (A) (A) (A) (A) (A) (A) (A) (A) (A) (A)
                 (A) (A) (A) (A) (A) (A) (A) (A) (A) (A) (A) (A)
 The electronic state is 1-A.
 Alpha  occ. eigenvalues --   -1.23539  -1.19593  -1.19303  -1.15830  -1.14262
 Alpha  occ. eigenvalues --   -1.12180  -1.11572  -1.09990  -1.09569  -1.08043
 Alpha  occ. eigenvalues --   -1.03736  -1.02040  -0.99803  -0.95074  -0.90083
 Alpha  occ. eigenvalues --   -0.89248  -0.84488  -0.80220  -0.79348  -0.76576
 Alpha  occ. eigenvalues --   -0.73626  -0.70170  -0.68874  -0.68639  -0.68290
 Alpha  occ. eigenvalues --   -0.66840  -0.65627  -0.64044  -0.63674  -0.62674
 Alpha  occ. eigenvalues --   -0.61675  -0.61323  -0.59731  -0.57650  -0.56879
 Alpha  occ. eigenvalues --   -0.55913  -0.55215  -0.55069  -0.54472  -0.54132
 Alpha  occ. eigenvalues --   -0.53172  -0.52709  -0.52124  -0.52052  -0.51608
 Alpha  occ. eigenvalues --   -0.51333  -0.50837  -0.50301  -0.50167  -0.49834
 Alpha  occ. eigenvalues --   -0.48624  -0.48191  -0.46326  -0.45295  -0.44550
 Alpha  occ. eigenvalues --   -0.44100  -0.43490  -0.43186  -0.42977  -0.42503
 Alpha  occ. eigenvalues --   -0.42369  -0.42045  -0.39507  -0.38769  -0.37926
 Alpha virt. eigenvalues --   -0.01101   0.00832   0.02172   0.02445   0.02901
 Alpha virt. eigenvalues --    0.03326   0.07749   0.08401   0.09264   0.09735
 Alpha virt. eigenvalues --    0.10992   0.11643   0.11714   0.12326   0.12789
 Alpha virt. eigenvalues --    0.13354   0.13627   0.13937   0.14077   0.14493
 Alpha virt. eigenvalues --    0.15249   0.15450   0.16257   0.16474   0.16851
 Alpha virt. eigenvalues --    0.17165   0.17695   0.17734   0.17948   0.18425
 Alpha virt. eigenvalues --    0.18683   0.18932   0.19403   0.19644   0.20042
 Alpha virt. eigenvalues --    0.20260   0.20575   0.20721   0.21084   0.21315
 Alpha virt. eigenvalues --    0.21624   0.21725   0.21904   0.22249   0.23038
 Alpha virt. eigenvalues --    0.23146   0.23286   0.24207
          Condensed to atoms (all electrons):
               1          2          3          4          5          6
     1  C    3.395551   0.000000   0.000000   0.000000   0.000000   0.000000
     2  C    0.000000   4.256516   0.000000   0.000000   0.000000   0.000000
     3  C    0.000000   0.000000   4.224341   0.000000   0.000000   0.000000
     4  C    0.000000   0.000000   0.000000   3.390479   0.000000   0.000000
     5  H    0.000000   0.000000   0.000000   0.000000   0.780220   0.000000
     6  H    0.000000   0.000000   0.000000   0.000000   0.000000   0.808937
     7  C    0.000000   0.000000   0.000000   0.000000   0.000000   0.000000
     8  H    0.000000   0.000000   0.000000   0.000000   0.000000   0.000000
     9  H    0.000000   0.000000   0.000000   0.000000   0.000000   0.000000
    10  H    0.000000   0.000000   0.000000   0.000000   0.000000   0.000000
    11  N    0.000000   0.000000   0.000000   0.000000   0.000000   0.000000
    12  O    0.000000   0.000000   0.000000   0.000000   0.000000   0.000000
    13  O    0.000000   0.000000   0.000000   0.000000   0.000000   0.000000
    14  C    0.000000   0.000000   0.000000   0.000000   0.000000   0.000000
    15  H    0.000000   0.000000   0.000000   0.000000   0.000000   0.000000
    16  C    0.000000   0.000000   0.000000   0.000000   0.000000   0.000000
    17  H    0.000000   0.000000   0.000000   0.000000   0.000000   0.000000
    18  C    0.000000   0.000000   0.000000   0.000000   0.000000   0.000000
    19  H    0.000000   0.000000   0.000000   0.000000   0.000000   0.000000
    20  C    0.000000   0.000000   0.000000   0.000000   0.000000   0.000000
    21  H    0.000000   0.000000   0.000000   0.000000   0.000000   0.000000
    22  C    0.000000   0.000000   0.000000   0.000000   0.000000   0.000000
    23  H    0.000000   0.000000   0.000000   0.000000   0.000000   0.000000
    24  H    0.000000   0.000000   0.000000   0.000000   0.000000   0.000000
    25  H    0.000000   0.000000   0.000000   0.000000   0.000000   0.000000
    26  C    0.000000   0.000000   0.000000   0.000000   0.000000   0.000000
    27  H    0.000000   0.000000   0.000000   0.000000   0.000000   0.000000
    28  H    0.000000   0.000000   0.000000   0.000000   0.000000   0.000000
    29  C    0.000000   0.000000   0.000000   0.000000   0.000000   0.000000
    30  C    0.000000   0.000000   0.000000   0.000000   0.000000   0.000000
    31  H    0.000000   0.000000   0.000000   0.000000   0.000000   0.000000
    32  H    0.000000   0.000000   0.000000   0.000000   0.000000   0.000000
    33  H    0.000000   0.000000   0.000000   0.000000   0.000000   0.000000
    34  O    0.000000   0.000000   0.000000   0.000000   0.000000   0.000000
    35  O    0.000000   0.000000   0.000000   0.000000   0.000000   0.000000
    36  O    0.000000   0.000000   0.000000   0.000000   0.000000   0.000000
    37  H    0.000000   0.000000   0.000000   0.000000   0.000000   0.000000
    38  H    0.000000   0.000000   0.000000   0.000000   0.000000   0.000000
    39  O    0.000000   0.000000   0.000000   0.000000   0.000000   0.000000
    40  H    0.000000   0.000000   0.000000   0.000000   0.000000   0.000000
    41  H    0.000000   0.000000   0.000000   0.000000   0.000000   0.000000
    42  O    0.000000   0.000000   0.000000   0.000000   0.000000   0.000000
    43  H    0.000000   0.000000   0.000000   0.000000   0.000000   0.000000
    44  H    0.000000   0.000000   0.000000   0.000000   0.000000   0.000000
    45  O    0.000000   0.000000   0.000000   0.000000   0.000000   0.000000
    46  H    0.000000   0.000000   0.000000   0.000000   0.000000   0.000000
    47  H    0.000000   0.000000   0.000000   0.000000   0.000000   0.000000
               7          8          9         10         11         12
     1  C    0.000000   0.000000   0.000000   0.000000   0.000000   0.000000
     2  C    0.000000   0.000000   0.000000   0.000000   0.000000   0.000000
     3  C    0.000000   0.000000   0.000000   0.000000   0.000000   0.000000
     4  C    0.000000   0.000000   0.000000   0.000000   0.000000   0.000000
     5  H    0.000000   0.000000   0.000000   0.000000   0.000000   0.000000
     6  H    0.000000   0.000000   0.000000   0.000000   0.000000   0.000000
     7  C    4.277363   0.000000   0.000000   0.000000   0.000000   0.000000
     8  H    0.000000   0.844995   0.000000   0.000000   0.000000   0.000000
     9  H    0.000000   0.000000   0.831342   0.000000   0.000000   0.000000
    10  H    0.000000   0.000000   0.000000   0.810297   0.000000   0.000000
    11  N    0.000000   0.000000   0.000000   0.000000   5.446359   0.000000
    12  O    0.000000   0.000000   0.000000   0.000000   0.000000   6.558174
    13  O    0.000000   0.000000   0.000000   0.000000   0.000000   0.000000
    14  C    0.000000   0.000000   0.000000   0.000000   0.000000   0.000000
    15  H    0.000000   0.000000   0.000000   0.000000   0.000000   0.000000
    16  C    0.000000   0.000000   0.000000   0.000000   0.000000   0.000000
    17  H    0.000000   0.000000   0.000000   0.000000   0.000000   0.000000
    18  C    0.000000   0.000000   0.000000   0.000000   0.000000   0.000000
    19  H    0.000000   0.000000   0.000000   0.000000   0.000000   0.000000
    20  C    0.000000   0.000000   0.000000   0.000000   0.000000   0.000000
    21  H    0.000000   0.000000   0.000000   0.000000   0.000000   0.000000
    22  C    0.000000   0.000000   0.000000   0.000000   0.000000   0.000000
    23  H    0.000000   0.000000   0.000000   0.000000   0.000000   0.000000
    24  H    0.000000   0.000000   0.000000   0.000000   0.000000   0.000000
    25  H    0.000000   0.000000   0.000000   0.000000   0.000000   0.000000
    26  C    0.000000   0.000000   0.000000   0.000000   0.000000   0.000000
    27  H    0.000000   0.000000   0.000000   0.000000   0.000000   0.000000
    28  H    0.000000   0.000000   0.000000   0.000000   0.000000   0.000000
    29  C    0.000000   0.000000   0.000000   0.000000   0.000000   0.000000
    30  C    0.000000   0.000000   0.000000   0.000000   0.000000   0.000000
    31  H    0.000000   0.000000   0.000000   0.000000   0.000000   0.000000
    32  H    0.000000   0.000000   0.000000   0.000000   0.000000   0.000000
    33  H    0.000000   0.000000   0.000000   0.000000   0.000000   0.000000
    34  O    0.000000   0.000000   0.000000   0.000000   0.000000   0.000000
    35  O    0.000000   0.000000   0.000000   0.000000   0.000000   0.000000
    36  O    0.000000   0.000000   0.000000   0.000000   0.000000   0.000000
    37  H    0.000000   0.000000   0.000000   0.000000   0.000000   0.000000
    38  H    0.000000   0.000000   0.000000   0.000000   0.000000   0.000000
    39  O    0.000000   0.000000   0.000000   0.000000   0.000000   0.000000
    40  H    0.000000   0.000000   0.000000   0.000000   0.000000   0.000000
    41  H    0.000000   0.000000   0.000000   0.000000   0.000000   0.000000
    42  O    0.000000   0.000000   0.000000   0.000000   0.000000   0.000000
    43  H    0.000000   0.000000   0.000000   0.000000   0.000000   0.000000
    44  H    0.000000   0.000000   0.000000   0.000000   0.000000   0.000000
    45  O    0.000000   0.000000   0.000000   0.000000   0.000000   0.000000
    46  H    0.000000   0.000000   0.000000   0.000000   0.000000   0.000000
    47  H    0.000000   0.000000   0.000000   0.000000   0.000000   0.000000
              13         14         15         16         17         18
     1  C    0.000000   0.000000   0.000000   0.000000   0.000000   0.000000
     2  C    0.000000   0.000000   0.000000   0.000000   0.000000   0.000000
     3  C    0.000000   0.000000   0.000000   0.000000   0.000000   0.000000
     4  C    0.000000   0.000000   0.000000   0.000000   0.000000   0.000000
     5  H    0.000000   0.000000   0.000000   0.000000   0.000000   0.000000
     6  H    0.000000   0.000000   0.000000   0.000000   0.000000   0.000000
     7  C    0.000000   0.000000   0.000000   0.000000   0.000000   0.000000
     8  H    0.000000   0.000000   0.000000   0.000000   0.000000   0.000000
     9  H    0.000000   0.000000   0.000000   0.000000   0.000000   0.000000
    10  H    0.000000   0.000000   0.000000   0.000000   0.000000   0.000000
    11  N    0.000000   0.000000   0.000000   0.000000   0.000000   0.000000
    12  O    0.000000   0.000000   0.000000   0.000000   0.000000   0.000000
    13  O    6.507526   0.000000   0.000000   0.000000   0.000000   0.000000
    14  C    0.000000   4.112415   0.000000   0.000000   0.000000   0.000000
    15  H    0.000000   0.000000   0.833558   0.000000   0.000000   0.000000
    16  C    0.000000   0.000000   0.000000   4.010355   0.000000   0.000000
    17  H    0.000000   0.000000   0.000000   0.000000   0.855434   0.000000
    18  C    0.000000   0.000000   0.000000   0.000000   0.000000   4.168741
    19  H    0.000000   0.000000   0.000000   0.000000   0.000000   0.000000
    20  C    0.000000   0.000000   0.000000   0.000000   0.000000   0.000000
    21  H    0.000000   0.000000   0.000000   0.000000   0.000000   0.000000
    22  C    0.000000   0.000000   0.000000   0.000000   0.000000   0.000000
    23  H    0.000000   0.000000   0.000000   0.000000   0.000000   0.000000
    24  H    0.000000   0.000000   0.000000   0.000000   0.000000   0.000000
    25  H    0.000000   0.000000   0.000000   0.000000   0.000000   0.000000
    26  C    0.000000   0.000000   0.000000   0.000000   0.000000   0.000000
    27  H    0.000000   0.000000   0.000000   0.000000   0.000000   0.000000
    28  H    0.000000   0.000000   0.000000   0.000000   0.000000   0.000000
    29  C    0.000000   0.000000   0.000000   0.000000   0.000000   0.000000
    30  C    0.000000   0.000000   0.000000   0.000000   0.000000   0.000000
    31  H    0.000000   0.000000   0.000000   0.000000   0.000000   0.000000
    32  H    0.000000   0.000000   0.000000   0.000000   0.000000   0.000000
    33  H    0.000000   0.000000   0.000000   0.000000   0.000000   0.000000
    34  O    0.000000   0.000000   0.000000   0.000000   0.000000   0.000000
    35  O    0.000000   0.000000   0.000000   0.000000   0.000000   0.000000
    36  O    0.000000   0.000000   0.000000   0.000000   0.000000   0.000000
    37  H    0.000000   0.000000   0.000000   0.000000   0.000000   0.000000
    38  H    0.000000   0.000000   0.000000   0.000000   0.000000   0.000000
    39  O    0.000000   0.000000   0.000000   0.000000   0.000000   0.000000
    40  H    0.000000   0.000000   0.000000   0.000000   0.000000   0.000000
    41  H    0.000000   0.000000   0.000000   0.000000   0.000000   0.000000
    42  O    0.000000   0.000000   0.000000   0.000000   0.000000   0.000000
    43  H    0.000000   0.000000   0.000000   0.000000   0.000000   0.000000
    44  H    0.000000   0.000000   0.000000   0.000000   0.000000   0.000000
    45  O    0.000000   0.000000   0.000000   0.000000   0.000000   0.000000
    46  H    0.000000   0.000000   0.000000   0.000000   0.000000   0.000000
    47  H    0.000000   0.000000   0.000000   0.000000   0.000000   0.000000
              19         20         21         22         23         24
     1  C    0.000000   0.000000   0.000000   0.000000   0.000000   0.000000
     2  C    0.000000   0.000000   0.000000   0.000000   0.000000   0.000000
     3  C    0.000000   0.000000   0.000000   0.000000   0.000000   0.000000
     4  C    0.000000   0.000000   0.000000   0.000000   0.000000   0.000000
     5  H    0.000000   0.000000   0.000000   0.000000   0.000000   0.000000
     6  H    0.000000   0.000000   0.000000   0.000000   0.000000   0.000000
     7  C    0.000000   0.000000   0.000000   0.000000   0.000000   0.000000
     8  H    0.000000   0.000000   0.000000   0.000000   0.000000   0.000000
     9  H    0.000000   0.000000   0.000000   0.000000   0.000000   0.000000
    10  H    0.000000   0.000000   0.000000   0.000000   0.000000   0.000000
    11  N    0.000000   0.000000   0.000000   0.000000   0.000000   0.000000
    12  O    0.000000   0.000000   0.000000   0.000000   0.000000   0.000000
    13  O    0.000000   0.000000   0.000000   0.000000   0.000000   0.000000
    14  C    0.000000   0.000000   0.000000   0.000000   0.000000   0.000000
    15  H    0.000000   0.000000   0.000000   0.000000   0.000000   0.000000
    16  C    0.000000   0.000000   0.000000   0.000000   0.000000   0.000000
    17  H    0.000000   0.000000   0.000000   0.000000   0.000000   0.000000
    18  C    0.000000   0.000000   0.000000   0.000000   0.000000   0.000000
    19  H    0.846104   0.000000   0.000000   0.000000   0.000000   0.000000
    20  C    0.000000   4.171740   0.000000   0.000000   0.000000   0.000000
    21  H    0.000000   0.000000   0.845922   0.000000   0.000000   0.000000
    22  C    0.000000   0.000000   0.000000   4.483978   0.000000   0.000000
    23  H    0.000000   0.000000   0.000000   0.000000   0.838305   0.000000
    24  H    0.000000   0.000000   0.000000   0.000000   0.000000   0.839139
    25  H    0.000000   0.000000   0.000000   0.000000   0.000000   0.000000
    26  C    0.000000   0.000000   0.000000   0.000000   0.000000   0.000000
    27  H    0.000000   0.000000   0.000000   0.000000   0.000000   0.000000
    28  H    0.000000   0.000000   0.000000   0.000000   0.000000   0.000000
    29  C    0.000000   0.000000   0.000000   0.000000   0.000000   0.000000
    30  C    0.000000   0.000000   0.000000   0.000000   0.000000   0.000000
    31  H    0.000000   0.000000   0.000000   0.000000   0.000000   0.000000
    32  H    0.000000   0.000000   0.000000   0.000000   0.000000   0.000000
    33  H    0.000000   0.000000   0.000000   0.000000   0.000000   0.000000
    34  O    0.000000   0.000000   0.000000   0.000000   0.000000   0.000000
    35  O    0.000000   0.000000   0.000000   0.000000   0.000000   0.000000
    36  O    0.000000   0.000000   0.000000   0.000000   0.000000   0.000000
    37  H    0.000000   0.000000   0.000000   0.000000   0.000000   0.000000
    38  H    0.000000   0.000000   0.000000   0.000000   0.000000   0.000000
    39  O    0.000000   0.000000   0.000000   0.000000   0.000000   0.000000
    40  H    0.000000   0.000000   0.000000   0.000000   0.000000   0.000000
    41  H    0.000000   0.000000   0.000000   0.000000   0.000000   0.000000
    42  O    0.000000   0.000000   0.000000   0.000000   0.000000   0.000000
    43  H    0.000000   0.000000   0.000000   0.000000   0.000000   0.000000
    44  H    0.000000   0.000000   0.000000   0.000000   0.000000   0.000000
    45  O    0.000000   0.000000   0.000000   0.000000   0.000000   0.000000
    46  H    0.000000   0.000000   0.000000   0.000000   0.000000   0.000000
    47  H    0.000000   0.000000   0.000000   0.000000   0.000000   0.000000
              25         26         27         28         29         30
     1  C    0.000000   0.000000   0.000000   0.000000   0.000000   0.000000
     2  C    0.000000   0.000000   0.000000   0.000000   0.000000   0.000000
     3  C    0.000000   0.000000   0.000000   0.000000   0.000000   0.000000
     4  C    0.000000   0.000000   0.000000   0.000000   0.000000   0.000000
     5  H    0.000000   0.000000   0.000000   0.000000   0.000000   0.000000
     6  H    0.000000   0.000000   0.000000   0.000000   0.000000   0.000000
     7  C    0.000000   0.000000   0.000000   0.000000   0.000000   0.000000
     8  H    0.000000   0.000000   0.000000   0.000000   0.000000   0.000000
     9  H    0.000000   0.000000   0.000000   0.000000   0.000000   0.000000
    10  H    0.000000   0.000000   0.000000   0.000000   0.000000   0.000000
    11  N    0.000000   0.000000   0.000000   0.000000   0.000000   0.000000
    12  O    0.000000   0.000000   0.000000   0.000000   0.000000   0.000000
    13  O    0.000000   0.000000   0.000000   0.000000   0.000000   0.000000
    14  C    0.000000   0.000000   0.000000   0.000000   0.000000   0.000000
    15  H    0.000000   0.000000   0.000000   0.000000   0.000000   0.000000
    16  C    0.000000   0.000000   0.000000   0.000000   0.000000   0.000000
    17  H    0.000000   0.000000   0.000000   0.000000   0.000000   0.000000
    18  C    0.000000   0.000000   0.000000   0.000000   0.000000   0.000000
    19  H    0.000000   0.000000   0.000000   0.000000   0.000000   0.000000
    20  C    0.000000   0.000000   0.000000   0.000000   0.000000   0.000000
    21  H    0.000000   0.000000   0.000000   0.000000   0.000000   0.000000
    22  C    0.000000   0.000000   0.000000   0.000000   0.000000   0.000000
    23  H    0.000000   0.000000   0.000000   0.000000   0.000000   0.000000
    24  H    0.000000   0.000000   0.000000   0.000000   0.000000   0.000000
    25  H    0.844703   0.000000   0.000000   0.000000   0.000000   0.000000
    26  C    0.000000   4.023558   0.000000   0.000000   0.000000   0.000000
    27  H    0.000000   0.000000   0.841893   0.000000   0.000000   0.000000
    28  H    0.000000   0.000000   0.000000   0.835457   0.000000   0.000000
    29  C    0.000000   0.000000   0.000000   0.000000   3.292079   0.000000
    30  C    0.000000   0.000000   0.000000   0.000000   0.000000   4.597177
    31  H    0.000000   0.000000   0.000000   0.000000   0.000000   0.000000
    32  H    0.000000   0.000000   0.000000   0.000000   0.000000   0.000000
    33  H    0.000000   0.000000   0.000000   0.000000   0.000000   0.000000
    34  O    0.000000   0.000000   0.000000   0.000000   0.000000   0.000000
    35  O    0.000000   0.000000   0.000000   0.000000   0.000000   0.000000
    36  O    0.000000   0.000000   0.000000   0.000000   0.000000   0.000000
    37  H    0.000000   0.000000   0.000000   0.000000   0.000000   0.000000
    38  H    0.000000   0.000000   0.000000   0.000000   0.000000   0.000000
    39  O    0.000000   0.000000   0.000000   0.000000   0.000000   0.000000
    40  H    0.000000   0.000000   0.000000   0.000000   0.000000   0.000000
    41  H    0.000000   0.000000   0.000000   0.000000   0.000000   0.000000
    42  O    0.000000   0.000000   0.000000   0.000000   0.000000   0.000000
    43  H    0.000000   0.000000   0.000000   0.000000   0.000000   0.000000
    44  H    0.000000   0.000000   0.000000   0.000000   0.000000   0.000000
    45  O    0.000000   0.000000   0.000000   0.000000   0.000000   0.000000
    46  H    0.000000   0.000000   0.000000   0.000000   0.000000   0.000000
    47  H    0.000000   0.000000   0.000000   0.000000   0.000000   0.000000
              31         32         33         34         35         36
     1  C    0.000000   0.000000   0.000000   0.000000   0.000000   0.000000
     2  C    0.000000   0.000000   0.000000   0.000000   0.000000   0.000000
     3  C    0.000000   0.000000   0.000000   0.000000   0.000000   0.000000
     4  C    0.000000   0.000000   0.000000   0.000000   0.000000   0.000000
     5  H    0.000000   0.000000   0.000000   0.000000   0.000000   0.000000
     6  H    0.000000   0.000000   0.000000   0.000000   0.000000   0.000000
     7  C    0.000000   0.000000   0.000000   0.000000   0.000000   0.000000
     8  H    0.000000   0.000000   0.000000   0.000000   0.000000   0.000000
     9  H    0.000000   0.000000   0.000000   0.000000   0.000000   0.000000
    10  H    0.000000   0.000000   0.000000   0.000000   0.000000   0.000000
    11  N    0.000000   0.000000   0.000000   0.000000   0.000000   0.000000
    12  O    0.000000   0.000000   0.000000   0.000000   0.000000   0.000000
    13  O    0.000000   0.000000   0.000000   0.000000   0.000000   0.000000
    14  C    0.000000   0.000000   0.000000   0.000000   0.000000   0.000000
    15  H    0.000000   0.000000   0.000000   0.000000   0.000000   0.000000
    16  C    0.000000   0.000000   0.000000   0.000000   0.000000   0.000000
    17  H    0.000000   0.000000   0.000000   0.000000   0.000000   0.000000
    18  C    0.000000   0.000000   0.000000   0.000000   0.000000   0.000000
    19  H    0.000000   0.000000   0.000000   0.000000   0.000000   0.000000
    20  C    0.000000   0.000000   0.000000   0.000000   0.000000   0.000000
    21  H    0.000000   0.000000   0.000000   0.000000   0.000000   0.000000
    22  C    0.000000   0.000000   0.000000   0.000000   0.000000   0.000000
[...]
 9125,-0.00015614,0.00001765,0.00001463,-0.00006210,0.00000210,0.000109
 25,-0.00016980,-0.00017578,-0.00010861,0.00019212,0.00023557,-0.000087
 94,0.00006472,0.00000888,0.00004763,-0.00001128,0.00000421,-0.00002788
 ,0.00000750,-0.00000202,-0.00003663,0.00001028,-0.00000217,-0.07381957
 ,0.09863402,0.01849882,0.00171420,-0.01742295,-0.00987338,0.07469553,-
 0.00299455,-0.00365604,0.00017640,0.00004585,0.00058898,0.00032796,0.0
 0096572,0.00096924,0.00079540,-0.01119894,-0.01033251,0.00199198,-0.00
 010060,-0.00006968,-0.00025121,0.00002524,0.00014433,-0.00048208,0.000
 74413,-0.00032126,-0.00008832,-0.00005888,0.00003219,0.00029614,-0.000
 22540,0.00009650,0.00002388,0.00005760,0.00152789,-0.00045639,0.004108
 07,0.00291481,-0.00126581,0.00645818,0.00748097,-0.00161290,0.00191140
 ,0.00082681,-0.00062120,0.00026311,-0.00010976,0.00013117,0.00013680,-
 0.00001135,0.00004070,0.00012363,-0.00018278,0.00003694,-0.00007320,-0
 .00002131,0.00001207,0.00002039,0.00013351,-0.00010188,-0.00000005,-0.
 00006802,0.00005951,-0.00015242,0.00004087,-0.00001759,0.00008887,-0.0
 0000252,0.00002864,-0.00000611,0.00027302,0.00003362,-0.00003135,-0.00
 005411,-0.00003301,-0.00000060,-0.00005549,0.00002077,0.00002278,-0.00
 005920,-0.00002305,0.00041119,-0.00009817,-0.00001075,0.00001379,0.000
 00088,-0.00006715,-0.00003375,-0.00005651,-0.00001150,0.00048391,0.000
 29953,-0.00004972,-0.00020522,-0.00003271,-0.00001296,0.00003696,0.000
 04123,0.00001040,0.00003680,-0.00000570,-0.00002664,0.00002796,-0.0000
 2091,0.00001490,-0.00025926,-0.00011703,0.00004283,-0.00059453,-0.0000
 8464,-0.00000045,-0.00060378,-0.00008656,0.00052252,0.00059963,0.00003
 543,-0.00065998,0.00028642,0.00005321,-0.00005542,-0.00007874,-0.00010
 427,-0.00002389,0.00001905,0.00005696,0.00000914,0.00008753,0.00007961
 ,0.00001689,0.05826735,-0.12376998,-0.03890573,0.01977533,-0.03686548,
 -0.01110175,-0.07846998,0.16053081,0.00016529,0.00013286,0.00015983,-0
 .00001473,-0.00005578,-0.00008431,0.00011490,-0.00007938,-0.00003479,-
 0.00131653,-0.00021099,0.00085615,0.00002118,-0.00001679,0.00003849,-0
 .00000239,-0.00006232,0.00009949,-0.00065239,-0.00024238,0.00012006,0.
 00010677,0.00015150,-0.00018416,0.00015472,-0.00002408,0.00000583,0.00
 106593,0.00070023,0.00005291,0.00061528,0.00003836,-0.00054732,0.00027
 446,0.00145472,-0.00171597,-0.00004263,-0.00009118,-0.00006067,0.00000
 076,-0.00001530,-0.00001766,-0.00000801,0.00000279,0.00002615,0.000007
 08,0.00000831,-0.00000574,-0.00000212,0.00000489,0.00000520,0.00000474
 ,-0.00000577,-0.00001084,-0.00000257,0.00000470,0.00000806,0.00000492,
 -0.00001726,-0.00001361,-0.00000239,0.00001141,0.00001049,0.00000676,-
 0.00000357,-0.00002494,0.00000046,-0.00000220,0.00000845,-0.00000092,-
 0.00000056,0.00000408,-0.00000375,-0.00000324,0.00000873,0.00000003,0.
 00002291,-0.00001303,0.00000530,-0.00002703,0.00002141,-0.00000465,-0.
 00000633,0.00000468,0.00000779,-0.00012502,0.00007572,-0.00001637,0.00
 001801,-0.00003820,0.00000356,0.00000300,0.00001213,0.00000375,-0.0000
 0361,0.00000545,-0.00000110,-0.00000409,0.00001103,-0.00005993,0.00010
 559,-0.00008648,0.00003111,0.00003544,-0.00002303,-0.00020556,0.000301
 94,0.00000884,0.00018318,-0.00023978,0.00000122,0.00010713,-0.00011531
 ,0.00005688,-0.00001342,-0.00000125,-0.00004735,0.00000076,0.00000177,
 0.00002625,0.00001835,-0.00000351,0.00003171,-0.00346869,-0.02091798,-
 0.01620350,0.01272321,-0.03189077,-0.01128662,-0.00977830,0.05117162,0
 .02878336,-0.00180143,-0.00098822,-0.00035225,0.00044076,0.00003897,0.
 00029431,-0.00044132,0.00043141,-0.00486640,-0.00262000,0.00109320,0.0
 0144649,-0.00078993,0.00027534,-0.00037762,-0.00090877,-0.00091743,0.0
 0285371,0.00027826,0.00011150,-0.00002056,-0.00000937,-0.00002485,0.00
 001152,-0.00009216,-0.00004607,-0.00007778,-0.00009157,0.00003614,-0.0
 0004728,0.00205825,0.00043539,-0.00034468,0.00051971,-0.00029803,-0.00
 050907,0.00110029,0.00016592,-0.00012563,0.00024582,-0.00011295,0.0000
 0563,0.00004898,0.00004948,0.00009225,0.00007321,0.00001983,-0.0000996
 8,-0.00010372,0.00001335,-0.00000446,0.00003676,0.00004803,-0.00011059
 ,-0.00000557,-0.00004020,0.00006635,-0.00008255,0.00003599,-0.00001775
 ,0.00003372,0.00002232,-0.00000378,0.00025931,0.00015831,0.00000296,-0
 .00011793,-0.00002670,-0.00001642,-0.00004945,-0.00004308,0.00000439,-
 0.00005397,-0.00008505,0.00002943,0.00042317,-0.00000974,-0.00003878,0
 .00013049,-0.00013188,0.00008048,-0.00004646,-0.00011141,0.00002288,0.
 00037538,0.00003397,0.00011534,-0.00019144,0.00001951,-0.00007383,0.00
 003313,0.00002932,0.00002450,0.00003918,-0.00001699,-0.00001157,0.0000
 2042,-0.00003306,0.00003255,-0.00028336,0.00006141,-0.00014026,-0.0004
 2551,-0.00001823,-0.00009204,-0.00176971,-0.00067710,-0.00018706,0.000
 32664,0.00049003,0.00018166,0.00036885,-0.00002406,0.00003616,-0.00007
 747,-0.00006146,-0.00006020,0.00001925,0.00002855,0.00002377,0.0000828
 5,0.00005299,0.00004710,0.00015811,-0.00011863,-0.00006747,-0.00002608
 ,0.00002265,0.00003709,-0.00012858,0.00020500,0.00006511,0.11050648,-0
 .00010880,-0.00189605,-0.00003274,0.00052451,0.00031355,0.00224935,0.0
 0034159,0.00041501,0.00128525,-0.00012851,-0.00122876,0.00085884,-0.00
 049499,-0.00120139,-0.00098316,-0.00018534,-0.00080432,-0.00086234,0.0
 0008865,0.00013727,-0.00008132,-0.00002586,0.00001733,0.00004391,0.000
 00171,-0.00005142,0.00006171,-0.00000058,-0.00005197,0.00013591,0.0002
 9763,0.00120100,-0.00049332,0.00008405,0.00069151,-0.00029077,0.000081
 64,0.00042531,0.00004972,0.00003311,0.00010135,0.00010107,-0.00001417,
 -0.00007910,0.00000016,-0.00008201,0.00016563,-0.00011606,0.00002728,-
 0.00000581,-0.00004346,-0.00000547,-0.00001692,0.00003402,0.00001757,0
 .00000158,-0.00001563,0.00004862,0.00002798,0.00005864,-0.00002599,-0.
 00001444,-0.00003281,0.00010232,-0.00014364,0.00022673,-0.00001812,0.0
 0010411,-0.00009117,-0.00001894,0.00003261,-0.00003805,-0.00006333,0.0
 0006042,-0.00006951,-0.00014311,0.00010289,-0.00005390,-0.00004630,-0.
 00006052,-0.00001519,-0.00006235,-0.00003113,-0.00002875,-0.00016974,-
 0.00044417,0.00005181,0.00004752,0.00008779,0.00001615,-0.00000400,-0.
 00002491,-0.00000698,-0.00000923,-0.00001235,-0.00000257,-0.00001065,-
 0.00000919,-0.00000880,-0.00004372,0.00028963,-0.00007259,0.00026359,0
 .00016362,0.00003953,-0.00071402,0.00044937,-0.00005892,0.00031407,-0.
 00006694,0.00006095,0.00012463,-0.00023276,0.00003622,-0.00000239,0.00
 004633,0.00000690,0.00000849,-0.00002077,-0.00000255,-0.00000501,-0.00
 003828,-0.00000257,-0.00003257,-0.00014769,-0.00020639,0.00001579,0.00
 005666,0.00006891,0.00007370,0.00004256,0.00015241,-0.09562884,0.15563
 967,-0.00137982,-0.00049323,0.00135652,-0.00070249,0.00115302,-0.00252
 811,-0.00167644,0.00083453,-0.00294899,0.00097668,0.00144759,0.0010118
 1,0.00064979,0.00021985,-0.00002329,-0.00042067,-0.00059064,-0.0000166
 2,0.00001962,0.00003095,0.00009547,0.00002903,0.00002648,0.00009977,-0
 .00007125,-0.00001398,0.00004843,0.00002759,0.00010358,-0.00001039,0.0
 0005497,-0.00008568,-0.00120300,-0.00075239,-0.00127068,-0.00012114,0.
 00108208,0.00020877,-0.00052963,0.00004023,-0.00002294,-0.00009699,0.0
 0004932,0.00010040,0.00003096,0.00010557,-0.00038489,0.00001026,-0.000
 09612,0.00001187,0.00001648,0.00004181,0.00020342,-0.00006947,-0.00000
 873,-0.00007833,0.00003443,-0.00022983,0.00002273,-0.00001496,0.000089
 53,-0.00000917,0.00001623,-0.00002682,0.00033359,0.00014659,-0.0000355
 1,-0.00007925,-0.00010584,0.00000426,-0.00005655,0.00000018,0.00003664
 ,-0.00007412,-0.00007483,0.00042522,-0.00016252,-0.00004042,-0.0000007
 2,0.00001244,-0.00015475,-0.00001953,-0.00006319,-0.00005947,0.0003464
 4,0.00023242,-0.00014796,-0.00013890,-0.00000118,0.00005466,0.00002053
 ,0.00001335,-0.00001040,0.00002160,-0.00001192,-0.00003962,0.00002070,
 -0.00002110,-0.00000509,-0.00015878,-0.00007096,0.00012647,-0.00050614
 ,-0.00005309,0.00007804,-0.00049436,-0.00009230,0.00061579,0.00035800,
 0.00011866,-0.00030838,0.00014814,-0.00000116,-0.00013994,-0.00004412,
 -0.00002124,0.00003780,0.00001866,0.00000746,-0.00001804,0.00004219,0.
 00002530,-0.00002547,-0.00006663,-0.00038280,-0.00001866,0.00005665,0.
 00010454,0.00003172,0.00000619,0.00040112,0.00000316,-0.09291826,0.006
 77827,0.19100912,0.00027897,0.00025979,0.00030991,-0.00010995,0.000072
 32,-0.00023142,-0.00023212,0.00009755,0.00021134,0.00091236,0.00018101
 ,-0.00016112,0.00011952,-0.00025462,0.00028779,0.00018913,0.00005938,-
 0.00062247,-0.00007528,-0.00002871,0.00001916,0.00001110,0.00000844,0.
 00000825,0.00001850,0.00000941,0.00002046,0.00003042,0.00000677,0.0000
 0217,-0.00054424,-0.00019958,-0.00003986,-0.00032528,-0.00023357,0.000
 16699,-0.00015447,-0.00004322,-0.00004945,-0.00003849,0.00001053,-0.00
 002835,-0.00000063,0.00001697,-0.00002245,0.00000138,-0.00006228,0.000
 03218,0.00001638,0.00000411,0.00000425,-0.00000400,0.00001453,0.000023
 04,0.00000097,0.00000168,-0.00001601,-0.00003455,-0.00000162,0.0000000
 1,0.00001074,-0.00000598,0.00000274,-0.00011922,0.00000087,0.00000336,
 0.00004317,-0.00000707,0.00000331,0.00002285,0.00000543,0.00000156,0.0
 0003681,0.00001434,-0.00002036,-0.00003816,-0.00006530,0.00002666,-0.0
 0003913,0.00006510,-0.00009337,0.00002450,0.00003408,-0.00002164,-0.00
 006891,0.00011251,-0.00011037,0.00005543,-0.00002378,0.00004951,-0.000
 01207,-0.00000746,-0.00001382,-0.00001421,0.00000748,-0.00000509,-0.00
 000445,0.00001213,-0.00001566,0.00009772,-0.00008562,0.00011890,0.0000
 1973,-0.00002718,0.00006304,0.00052665,0.00028881,0.00027661,-0.000021
 93,-0.00013320,-0.00015879,-0.00013228,0.00000048,-0.00008173,0.000031
 95,0.00002109,0.00004014,-0.00000755,-0.00001102,-0.00001629,-0.000032
 07,-0.00001544,-0.00003126,-0.00006955,-0.00000288,0.00003606,0.000019
 91,0.00000154,-0.00001375,0.00004210,-0.00000244,-0.00003652,-0.043054
 89,0.01881190,0.06135399,0.06069922,0.00035572,0.00031887,-0.00025088,
 0.00008114,-0.00017534,0.00027086,-0.00000908,-0.00009583,-0.00002148,
 0.00005131,0.00014274,-0.00031832,-0.00010856,0.00040341,-0.00021463,-
 0.00006483,0.00023862,0.00013561,-0.00002550,-0.00003325,0.00001718,0.
 00000306,-0.00000057,-0.00001920,0.00001281,0.00001346,-0.00001494,0.0
 0000432,0.00001193,-0.00002760,-0.00014314,-0.00021383,0.00017910,0.00
 000829,-0.00009133,0.00012206,-0.00022297,-0.00010875,0.00006669,-0.00
 002306,-0.00001161,-0.00002583,0.00000271,0.00001027,-0.00000398,-0.00
 000050,0.00007305,0.00002564,0.00001499,-0.00000046,0.00000632,-0.0000
 0153,-0.00004010,0.00000478,-0.00000028,0.00001334,0.00000190,0.000016
 01,-0.00001331,-0.00001340,-0.00000407,0.00000722,0.00000644,-0.000022
 80,-0.00001445,-0.00011993,0.00001170,-0.00001054,0.00005261,0.0000049
 9,-0.00000066,0.00001294,0.00000931,-0.00000439,0.00004211,-0.00001216
 ,-0.00001935,0.00001297,0.00001767,0.00002291,0.00003146,0.00002242,0.
 00002297,0.00002365,0.00003184,0.00016616,-0.00000681,-0.00000450,-0.0
 0003816,-0.00001089,-0.00000033,0.00000910,0.00000312,0.00000175,0.000
 00741,0.00000536,0.00000236,0.00000692,0.00000355,0.00003636,-0.000120
 38,0.00002225,-0.00004897,-0.00006415,-0.00002982,0.00031356,-0.000164
 91,0.00000557,-0.00013104,0.00003093,-0.00002177,-0.00006218,0.0000966
 9,-0.00001972,0.00000559,-0.00001792,-0.00000179,-0.00000494,0.0000079
 4,0.00000050,-0.00000273,0.00001417,0.,-0.00000667,0.00006582,0.000089
 51,-0.00000342,-0.00002296,-0.00003127,-0.00000800,-0.00003632,-0.0000
 6168,-0.00130885,-0.02101436,0.02710505,-0.02365069,0.03200234,0.00032
 538,0.00030496,-0.00029354,0.00000225,0.00004845,-0.00007347,-0.000044
 22,0.00002188,0.00050321,-0.00000932,-0.00041816,-0.00057563,0.0000467
 5,0.00021870,-0.00025756,-0.00090375,0.00041861,-0.00134036,-0.0000254
 9,-0.00002275,0.00000463,-0.00000454,-0.00001216,-0.00003510,0.0000181
 1,0.00000951,-0.00002162,-0.00000691,-0.00002729,-0.00001683,-0.000186
 65,-0.00009487,0.00028253,0.00014610,0.00027857,0.00011768,-0.00026482
 ,-0.00008586,0.00014323,-0.00004341,0.00002696,-0.00002862,-0.00002641
 ,-0.00001882,-0.00001881,-0.00004780,0.00005950,-0.00003041,0.00002085
 ,0.00000242,-0.00000483,-0.00000661,-0.00004290,0.00002513,-0.00000117
 ,0.00002412,-0.00001639,0.00005855,-0.00001640,0.00000742,-0.00002886,
 0.00000245,-0.00000494,0.00000935,-0.00012462,-0.00001860,0.00000900,0
 .00003283,0.00002182,-0.00000321,0.00002278,-0.00000038,-0.00001215,0.
 00003461,0.00001349,-0.00016960,0.00003641,0.00000152,-0.00002588,0.00
 001603,0.00004041,0.00000708,0.00002872,0.00001560,-0.00016185,-0.0000
 7886,0.00004883,0.00007439,-0.00000381,-0.00002198,-0.00001192,-0.0000
 0711,0.00000411,-0.00001319,0.00000627,0.00001935,-0.00001059,0.000010
 69,0.00000134,0.00009435,0.00001040,-0.00003650,0.00021880,0.00002437,
 -0.00001649,0.00055221,0.00012865,-0.00022542,-0.00019937,-0.00009620,
 0.00006740,-0.00012397,0.00000950,0.00005809,0.00002727,0.00001275,-0.
 00001608,-0.00001102,-0.00000483,0.00000778,-0.00002611,-0.00001381,0.
 00000984,0.00002575,0.00016210,0.00003727,-0.00002100,-0.00004745,-0.0
 0001897,-0.00000939,-0.00014103,-0.00002552,0.08679868,-0.01470489,-0.
 15943467,-0.09278285,0.00910020,0.18030811,0.00102264,0.00046091,-0.00
 025222,-0.00008005,-0.00003070,0.00004697,-0.00011081,-0.00005814,0.00
 015971,0.00058027,-0.00012843,-0.00105038,0.00011094,0.00026494,-0.000
 27243,-0.00056198,0.00052732,-0.00040971,-0.00012897,-0.00005850,-0.00
 003101,0.00000688,0.00001470,-0.00000889,0.00006209,0.00001705,0.00003
 860,0.00005505,-0.00001705,0.00002775,-0.00081024,-0.00025802,0.000330
 40,-0.00014337,0.00007013,0.00026172,-0.00064360,-0.00006947,0.0001107
 0,-0.00000774,-0.00000987,-0.00001948,-0.00000570,-0.00000930,-0.00002
 473,-0.00003446,0.00002660,0.00002499,0.00004429,-0.00000471,-0.000004
 09,-0.00002054,-0.00002999,0.00003483,0.00000617,0.00001716,-0.0000226
 8,0.00002566,0.00000114,0.00000333,-0.00001086,-0.00000337,-0.00000519
 ,-0.00006805,-0.00007907,0.00001563,0.00003623,0.00002159,0.00000101,0
 .00001511,0.00001866,-0.00000583,0.00000908,0.00002753,-0.00000975,-0.
 00010854,-0.00000296,0.00003377,-0.00002600,0.00004066,-0.00002512,0.0
 0001478,0.00002874,-0.00000384,-0.00012725,0.00003386,-0.00004985,0.00
 007240,-0.00001602,0.00002800,-0.00001405,-0.00000915,-0.00000927,-0.0
 0001551,0.00000752,0.00000412,-0.00000816,0.00001309,-0.00001175,0.000
 11071,-0.00005340,0.00006145,0.00012275,-0.00000767,0.00002515,0.00053
 858,0.00007732,0.00003283,-0.00015893,-0.00010497,-0.00006308,-0.00014
 047,0.00004261,-0.00002738,0.00003507,0.00002162,0.00002556,-0.0000102
 0,-0.00001050,-0.00001030,-0.00003513,-0.00001748,-0.00002004,-0.00010
 270,0.00010125,0.00006400,0.00001503,-0.00002037,-0.00002970,0.0000644
 4,-0.00013324,-0.00005994,-0.06440803,0.07673556,0.03372223,-0.0180758
 5,0.02486293,0.00674695,0.08290900,0.00008324,0.00059593,0.00038770,-0
 .00007830,-0.00008157,-0.00004248,-0.00001951,-0.00005342,-0.00036240,
 0.00018033,0.00078724,-0.00002546,0.00021202,-0.00048681,0.00031094,0.
 00064478,-0.00021187,0.00073380,-0.00003420,-0.00007501,0.00009992,0.0
 0001749,-0.00000618,-0.00001973,-0.00000543,0.00003013,-0.00003548,0.0
 0000021,0.00006509,-0.00009279,-0.00012764,-0.00052894,0.00000647,-0.0
 0008076,-0.00054063,0.00008508,0.00001794,-0.00016098,-0.00009900,-0.0
 0001716,-0.00003270,-0.00003359,0.00000970,0.00003564,0.00000990,0.000
 02128,-0.00002747,0.00001570,-0.00000841,0.00000736,0.00001342,0.00001
 019,0.00001325,-0.00001616,-0.00000437,-0.00000348,0.00001047,-0.00003
 001,-0.00001324,-0.00001874,0.00001464,0.00000694,0.00001265,-0.000039
 88,0.00004693,-0.00007075,0.00001256,-0.00002271,0.00002402,0.00000826
 ,-0.00001132,0.00001425,0.00001534,-0.00001482,0.00001766,0.00007728,-
 0.00003773,0.00000092,0.00001897,0.00000412,0.00001373,0.00001017,0.00
 000399,0.00000789,0.00010188,0.00016962,-0.00000871,-0.00003503,-0.000
 03311,-0.00001292,0.00000490,0.00001330,0.00000495,0.00000686,0.000003
 95,0.00000014,0.00000572,0.00000137,0.00000590,-0.00001572,-0.00010726
 ,0.00001223,-0.00013692,-0.00005964,-0.00001915,-0.00003416,-0.0002882
 9,-0.00002285,-0.00006235,0.00013826,-0.00001338,0.00000063,0.00008631
 ,-0.00001128,-0.00000549,-0.00002781,-0.00000817,-0.00000235,0.0000131
 1,0.00000298,0.00000990,0.00002258,0.00000547,0.00005174,0.00005084,0.
 00015489,-0.00001145,-0.00002789,-0.00004056,-0.00007392,0.00005348,-0
 .00009497,0.09684461,-0.13297678,-0.03545503,0.00474332,-0.01137273,0.
 00490961,-0.10230087,0.14505284,0.00017781,0.00087025,-0.00068562,-0.0
 0000043,-0.00023763,-0.00019382,0.00010166,-0.00008745,-0.00037066,-0.
 00110710,0.00002231,-0.00063451,-0.00012059,0.00024239,0.00039518,0.00
 003741,0.00025795,0.00060453,0.00001835,-0.00004598,-0.00001629,0.0000
 0082,-0.00002456,-0.00004493,0.00001198,0.00001345,-0.00004899,-0.0000
 2755,-0.00002151,-0.00003917,0.00033280,-0.00039198,0.00058578,0.00037
 538,0.00020835,0.00003943,-0.00023841,-0.00021487,0.00016721,0.0000235
 0,-0.00004305,-0.00002726,-0.00000926,0.00000308,0.00000190,0.00000743
 ,0.00002422,-0.00001133,0.00000281,0.00000577,0.00000351,-0.00000513,-
 0.00003466,-0.00000156,-0.00000282,0.00001495,-0.00000196,0.00003067,-
 0.00000555,-0.00000862,-0.00001347,0.00000780,-0.00000101,0.00000940,-
 0.00005384,-0.00005048,0.00000463,0.00000384,0.00003150,-0.00000119,0.
 00000703,0.00000400,-0.00000224,0.00000421,0.00002112,-0.00004016,0.00
 001547,0.00001418,0.00001206,-0.00000427,0.00003120,0.00000965,0.00000
 870,0.00001371,-0.00005292,0.00000391,0.00003033,0.00002636,-0.0000108
 5,-0.00001854,-0.00000529,0.00000067,0.00000463,-0.00000463,0.00000384
 ,0.00000964,-0.00000442,0.00000520,0.00000387,0.00003534,-0.00001623,-
 0.00002781,0.00006310,-0.00000697,-0.00002407,0.00009967,-0.00006797,-
 0.00016702,-0.00012206,0.00002468,0.00010559,-0.00003649,0.00001751,0.
 00002906,0.00001363,-0.00000015,-0.00001406,-0.00000744,0.00000045,0.0
 0000675,-0.00001025,-0.00000116,0.00000921,0.00005731,0.00019469,0.000
 03316,-0.00002824,-0.00005475,-0.00001849,-0.00004094,-0.00014424,-0.0
 0002153,0.00829150,0.00599741,-0.02667828,0.03151098,-0.03613316,-0.01
 920620,-0.03937317,0.02964310,0.04616737\\-0.00000527,-0.00000924,-0.0
 0000352,-0.00000007,0.00000551,-0.00000252,-0.00000263,0.00000086,-0.0
 0000386,-0.00000144,-0.00000648,-0.00000289,0.00000246,-0.00000307,-0.
 00000322,0.00000188,-0.00000005,0.00000034,-0.00000157,-0.00000142,-0.
 00000236,-0.00000114,-0.00000060,-0.00000062,0.00000023,-0.00000129,-0
 .00000094,-0.00000301,-0.00000284,-0.00000151,0.00000305,0.00000467,0.
 00000172,-0.00000116,0.00000787,0.00000503,0.00000179,0.00000323,-0.00
 000256,0.00000296,-0.00000200,0.00000046,-0.00000043,-0.00000058,-0.00
 000008,0.00000015,-0.00000382,-0.00000065,-0.00000096,-0.00000096,-0.0
 0000199,-0.00000200,-0.00000029,-0.00000170,-0.00000145,-0.00000180,-0
 .00000142,0.00000035,0.00000037,-0.00000154,-0.00000181,-0.00000102,0.
 00000061,0.00000016,0.00000013,-0.00000148,0.00000096,0.00000023,-0.00
 000411,-0.00000089,-0.00000045,-0.00000301,0.00000090,0.00000031,-0.00
 000221,-0.00000139,0.00000083,0.00000178,0.00000061,0.00000125,0.00000
 049,0.00000025,0.00000066,0.00000022,-0.00000187,-0.00000333,0.0000010
 5,-0.00000063,-0.00000154,0.00000416,0.00000069,-0.00000036,0.00000350
 ,0.00000099,0.00000117,0.00000253,-0.00000052,-0.00000005,0.00000241,-
 0.00000501,0.00000923,0.00000071,0.00000206,0.00000210,-0.00000101,-0.
 00000711,-0.00000216,0.00000443,0.00000029,0.00000066,0.00000109,0.000
 01048,0.00000290,0.00000214,0.00000115,0.00000241,0.00000082,-0.000001
 10,0.00000121,0.00000587,0.00000271,-0.00000876,0.00000654,0.00000383,
 -0.00000509,-0.00000169,0.00000177,0.00000244,0.00000430,-0.00000136,0
 .00000199,-0.00000170,-0.00000332,0.00000192,0.00000563,0.00000499,-0.
 00000068,-0.00000446,0.00000143,0.00000594,-0.00000482\\\@


 THE ATTENTION SPAN OF A COMPUTER IS AS LONG
 AS ITS EXTENSION CORD.
 Job cpu time:       0 days  0 hours  1 minutes 29.9 seconds.
 File lengths (MBytes):  RWF=    447 Int=      0 D2E=      0 Chk=     17 Scr=      1
 Normal termination of Gaussian 09 at Fri Aug  7 00:15:04 2020.
