 Entering Gaussian System, Link 0=g09
 Input=dmad_cycloaddition_PM6_toluene_water.com
 Output=dmad_cycloaddition_PM6_toluene_water.log
 Initial command:
 /apps/applications/gaussian/G09.D01/2/default/g09/l1.exe "/local/730374.1.40core-192G.q/Gau-78476.inp" -scrdir="/local/730374.1.40core-192G.q/"
 Entering Link 1 = /apps/applications/gaussian/G09.D01/2/default/g09/l1.exe PID=     78477.
  
 Copyright (c) 1988,1990,1992,1993,1995,1998,2003,2009,2013,
            Gaussian, Inc.  All Rights Reserved.
  
 This is part of the Gaussian(R) 09 program.  It is based on
 the Gaussian(R) 03 system (copyright 2003, Gaussian, Inc.),
 the Gaussian(R) 98 system (copyright 1998, Gaussian, Inc.),
 the Gaussian(R) 94 system (copyright 1995, Gaussian, Inc.),
 the Gaussian 92(TM) system (copyright 1992, Gaussian, Inc.),
 the Gaussian 90(TM) system (copyright 1990, Gaussian, Inc.),
 the Gaussian 88(TM) system (copyright 1988, Gaussian, Inc.),
 the Gaussian 86(TM) system (copyright 1986, Carnegie Mellon
 University), and the Gaussian 82(TM) system (copyright 1983,
 Carnegie Mellon University). Gaussian is a federally registered
 trademark of Gaussian, Inc.
  
 This software contains proprietary and confidential information,
 including trade secrets, belonging to Gaussian, Inc.
  
 This software is provided under written license and may be
 used, copied, transmitted, or stored only in accord with that
 written license.
  
 The following legend is applicable only to US Government
 contracts under FAR:
  
                    RESTRICTED RIGHTS LEGEND
  
 Use, reproduction and disclosure by the US Government is
 subject to restrictions as set forth in subparagraphs (a)
 and (c) of the Commercial Computer Software - Restricted
 Rights clause in FAR 52.227-19.
  
 Gaussian, Inc.
 340 Quinnipiac St., Bldg. 40, Wallingford CT 06492
  
  
 ---------------------------------------------------------------
 Warning -- This program may not be used in any manner that
 competes with the business of Gaussian, Inc. or will provide
 assistance to any competitor of Gaussian, Inc.  The licensee
 of this program is prohibited from giving any competitor of
 Gaussian, Inc. access to this program.  By using this program,
 the user acknowledges that Gaussian, Inc. is engaged in the
 business of creating and licensing software in the field of
 computational chemistry and represents and warrants to the
 licensee that it is not a competitor of Gaussian, Inc. and that
 it will not use this program in any manner prohibited above.
 ---------------------------------------------------------------
  

 Cite this work as:
 Gaussian 09, Revision D.01,
 M. J. Frisch, G. W. Trucks, H. B. Schlegel, G. E. Scuseria, 
 M. A. Robb, J. R. Cheeseman, G. Scalmani, V. Barone, B. Mennucci, 
 G. A. Petersson, H. Nakatsuji, M. Caricato, X. Li, H. P. Hratchian, 
 A. F. Izmaylov, J. Bloino, G. Zheng, J. L. Sonnenberg, M. Hada, 
 M. Ehara, K. Toyota, R. Fukuda, J. Hasegawa, M. Ishida, T. Nakajima, 
 Y. Honda, O. Kitao, H. Nakai, T. Vreven, J. A. Montgomery, Jr., 
 J. E. Peralta, F. Ogliaro, M. Bearpark, J. J. Heyd, E. Brothers, 
 K. N. Kudin, V. N. Staroverov, T. Keith, R. Kobayashi, J. Normand, 
 K. Raghavachari, A. Rendell, J. C. Burant, S. S. Iyengar, J. Tomasi, 
 M. Cossi, N. Rega, J. M. Millam, M. Klene, J. E. Knox, J. B. Cross, 
 V. Bakken, C. Adamo, J. Jaramillo, R. Gomperts, R. E. Stratmann, 
 O. Yazyev, A. J. Austin, R. Cammi, C. Pomelli, J. W. Ochterski, 
 R. L. Martin, K. Morokuma, V. G. Zakrzewski, G. A. Voth, 
 P. Salvador, J. J. Dannenberg, S. Dapprich, A. D. Daniels, 
 O. Farkas, J. B. Foresman, J. V. Ortiz, J. Cioslowski, 
 and D. J. Fox, Gaussian, Inc., Wallingford CT, 2013.
 
 ******************************************
 Gaussian 09:  ES64L-G09RevD.01 24-Apr-2013
                 8-Sep-2020 
 ******************************************
 %nprocshared=4
 Will use up to    4 processors via shared memory.
 %chk=dmad_cycloaddition_PM6_toluene_water.chk
 ----------------------------------------------------------------------
 # opt freq pm6 scrf=(cpcm,solvent=water) geom=connectivity empiricaldi
 spersion=gd3
 ----------------------------------------------------------------------
 1/14=-1,18=20,19=15,26=1,38=1,57=2/1,3;
 2/9=110,12=2,17=6,18=5,40=1/2;
 3/5=2,16=1,25=1,41=3900000,70=2101,71=1,72=1,124=31/1,2,3;
 4/35=1/1;
 5/5=2,35=1,38=5,53=1/2;
 6/7=2,8=2,9=2,10=2,28=1/1;
 7//1,2,3,16;
 1/14=-1,18=20,19=15,26=1/3(2);
 2/9=110/2;
 99//99;
 2/9=110/2;
 3/5=2,16=1,25=1,41=3900000,70=2105,71=1,72=1,124=31,135=20/1,2,3;
 4/5=5,16=3,35=1/1;
 5/5=2,35=1,38=5,53=1/2;
 7//1,2,3,16;
 1/14=-1,18=20,19=15,26=1/3(-5);
 2/9=110/2;
 6/7=2,8=2,9=2,10=2,19=2,28=1/1;
 99/9=1/99;
 -------------------
 Title Card Required
 -------------------
 Symbolic Z-matrix:
 Charge =  0 Multiplicity = 1
 N                    -0.38933   0.22912   0.41757 
 N                     0.38934  -0.22904  -0.41765 
 C                    -1.78967   0.50382   0.05885 
 C                     1.78967  -0.50381  -0.05892 
 O                     2.24247  -1.61061   0.06235 
 O                    -2.24251   1.6106   -0.06245 
 O                     2.46657   0.6757   -0.06084 
 O                    -2.46655  -0.6757    0.06091 
 C                    -3.92195  -0.59269  -0.04624 
 H                    -4.20454  -1.65399  -0.05068 
 H                    -4.32579  -0.06842   0.82555 
 H                    -4.19815  -0.09498  -0.98129 
 C                     3.92196   0.59264   0.04638 
 H                     4.20457   1.65394   0.05092 
 H                     4.19809   0.09485   0.98141 
 H                     4.32584   0.06844  -0.82543 
 

 GradGradGradGradGradGradGradGradGradGradGradGradGradGradGradGradGradGrad
 Berny optimization.
 Initialization pass.
                           ----------------------------
                           !    Initial Parameters    !
                           ! (Angstroms and Degrees)  !
 --------------------------                            --------------------------
 ! Name  Definition              Value          Derivative Info.                !
 --------------------------------------------------------------------------------
 ! R1    R(1,2)                  1.2304         estimate D2E/DX2                !
 ! R2    R(1,3)                  1.4714         estimate D2E/DX2                !
 ! R3    R(2,4)                  1.4714         estimate D2E/DX2                !
 ! R4    R(3,6)                  1.202          estimate D2E/DX2                !
 ! R5    R(3,8)                  1.3599         estimate D2E/DX2                !
 ! R6    R(4,5)                  1.202          estimate D2E/DX2                !
 ! R7    R(4,7)                  1.3599         estimate D2E/DX2                !
 ! R8    R(7,13)                 1.4617         estimate D2E/DX2                !
 ! R9    R(8,9)                  1.4617         estimate D2E/DX2                !
 ! R10   R(9,10)                 1.0983         estimate D2E/DX2                !
 ! R11   R(9,11)                 1.0945         estimate D2E/DX2                !
 ! R12   R(9,12)                 1.0947         estimate D2E/DX2                !
 ! R13   R(13,14)                1.0983         estimate D2E/DX2                !
 ! R14   R(13,15)                1.0947         estimate D2E/DX2                !
 ! R15   R(13,16)                1.0945         estimate D2E/DX2                !
 ! A1    A(2,1,3)              120.4195         estimate D2E/DX2                !
 ! A2    A(1,2,4)              120.4195         estimate D2E/DX2                !
 ! A3    A(1,3,6)              123.7144         estimate D2E/DX2                !
 ! A4    A(1,3,8)              108.1431         estimate D2E/DX2                !
 ! A5    A(6,3,8)              127.6819         estimate D2E/DX2                !
 ! A6    A(2,4,5)              123.7148         estimate D2E/DX2                !
 ! A7    A(2,4,7)              108.1429         estimate D2E/DX2                !
 ! A8    A(5,4,7)              127.6821         estimate D2E/DX2                !
 ! A9    A(4,7,13)             116.5007         estimate D2E/DX2                !
 ! A10   A(3,8,9)              116.5009         estimate D2E/DX2                !
 ! A11   A(8,9,10)             101.631          estimate D2E/DX2                !
 ! A12   A(8,9,11)             109.6454         estimate D2E/DX2                !
 ! A13   A(8,9,12)             109.8564         estimate D2E/DX2                !
 ! A14   A(10,9,11)            111.7862         estimate D2E/DX2                !
 ! A15   A(10,9,12)            111.7757         estimate D2E/DX2                !
 ! A16   A(11,9,12)            111.684          estimate D2E/DX2                !
 ! A17   A(7,13,14)            101.6308         estimate D2E/DX2                !
 ! A18   A(7,13,15)            109.8564         estimate D2E/DX2                !
 ! A19   A(7,13,16)            109.6454         estimate D2E/DX2                !
 ! A20   A(14,13,15)           111.7757         estimate D2E/DX2                !
 ! A21   A(14,13,16)           111.7863         estimate D2E/DX2                !
 ! A22   A(15,13,16)           111.684          estimate D2E/DX2                !
 ! D1    D(3,1,2,4)           -179.9968         estimate D2E/DX2                !
 ! D2    D(2,1,3,6)           -108.8513         estimate D2E/DX2                !
 ! D3    D(2,1,3,8)             78.4116         estimate D2E/DX2                !
 ! D4    D(1,2,4,5)            108.8517         estimate D2E/DX2                !
 ! D5    D(1,2,4,7)            -78.408          estimate D2E/DX2                !
 ! D6    D(1,3,8,9)            169.8473         estimate D2E/DX2                !
 ! D7    D(6,3,8,9)             -2.5168         estimate D2E/DX2                !
 ! D8    D(2,4,7,13)          -169.849          estimate D2E/DX2                !
 ! D9    D(5,4,7,13)             2.5186         estimate D2E/DX2                !
 ! D10   D(4,7,13,14)         -178.4324         estimate D2E/DX2                !
 ! D11   D(4,7,13,15)          -59.9411         estimate D2E/DX2                !
 ! D12   D(4,7,13,16)           63.1547         estimate D2E/DX2                !
 ! D13   D(3,8,9,10)           178.4324         estimate D2E/DX2                !
 ! D14   D(3,8,9,11)           -63.1547         estimate D2E/DX2                !
 ! D15   D(3,8,9,12)            59.941          estimate D2E/DX2                !
 --------------------------------------------------------------------------------
 Trust Radius=3.00D-01 FncErr=1.00D-07 GrdErr=1.00D-07
 Number of steps in this run=     62 maximum allowed number of steps=    100.
 GradGradGradGradGradGradGradGradGradGradGradGradGradGradGradGradGradGrad

                          Input orientation:                          
 ---------------------------------------------------------------------
 Center     Atomic      Atomic             Coordinates (Angstroms)
 Number     Number       Type             X           Y           Z
 ---------------------------------------------------------------------
      1          7           0       -0.389329    0.229118    0.417565
      2          7           0        0.389344   -0.229043   -0.417653
      3          6           0       -1.789670    0.503817    0.058851
      4          6           0        1.789666   -0.503808   -0.058920
      5          8           0        2.242472   -1.610606    0.062345
      6          8           0       -2.242510    1.610596   -0.062448
      7          8           0        2.466567    0.675698   -0.060842
      8          8           0       -2.466549   -0.675704    0.060907
      9          6           0       -3.921945   -0.592689   -0.046240
     10          1           0       -4.204536   -1.653993   -0.050680
     11          1           0       -4.325790   -0.068424    0.825554
     12          1           0       -4.198149   -0.094983   -0.981292
     13          6           0        3.921955    0.592641    0.046382
     14          1           0        4.204567    1.653939    0.050924
     15          1           0        4.198093    0.094854    0.981410
     16          1           0        4.325838    0.068437   -0.825431
 ---------------------------------------------------------------------
                    Distance matrix (angstroms):
                    1          2          3          4          5
     1  N    0.000000
     2  N    1.230379   0.000000
     3  C    1.471425   2.347816   0.000000
     4  C    2.347816   1.471423   3.720326   0.000000
     5  O    3.230657   2.360762   4.552907   1.201973   0.000000
     6  O    2.360757   3.230650   1.201972   4.552929   5.523294
     7  O    2.929923   2.293627   4.261387   1.359939   2.300561
     8  O    2.293633   2.929957   1.359941   4.261370   4.800929
     9  C    3.656482   4.342511   2.399993   5.712317   6.248839
    10  H    4.280323   4.823783   3.240327   6.103561   6.448145
    11  H    3.968717   4.878919   2.710572   6.194405   6.789910
    12  H    4.070498   4.623933   2.690953   6.072218   6.698350
    13  C    4.342476   3.656478   5.712329   2.399989   2.770418
    14  H    4.823735   4.280317   6.103583   3.240322   3.808832
    15  H    4.623893   4.070486   6.072205   2.690948   2.752767
    16  H    4.878899   3.968723   6.194429   2.710567   2.819175
                    6          7          8          9         10
     6  O    0.000000
     7  O    4.800984   0.000000
     8  O    2.300560   5.116321   0.000000
     9  C    2.770420   6.513225   1.461694   0.000000
    10  H    3.808835   7.066200   1.997523   1.098291   0.000000
    11  H    2.819169   6.890249   2.100060   1.094518   1.815631
    12  H    2.752780   6.771973   2.102821   1.094679   1.815652
    13  C    6.248896   1.461694   6.513209   7.933496   8.431882
    14  H    6.448219   1.997521   7.066196   8.431902   9.036910
    15  H    6.698394   2.102820   6.771893   8.213635   8.644527
    16  H    6.789963   2.100060   6.890273   8.310845   8.736949
                   11         12         13         14         15
    11  H    0.000000
    12  H    1.811544   0.000000
    13  C    8.310801   8.213710   0.000000
    14  H    8.736909   8.644642   1.098291   0.000000
    15  H    8.526871   8.624681   1.094679   1.815652   0.000000
    16  H    8.808811   8.526978   1.094518   1.815632   1.811544
                   16
    16  H    0.000000
 Stoichiometry    C4H6N2O4
 Framework group  C1[X(C4H6N2O4)]
 Deg. of freedom    42
 Full point group                 C1      NOp   1
 Largest Abelian subgroup         C1      NOp   1
 Largest concise Abelian subgroup C1      NOp   1
                         Standard orientation:                         
 ---------------------------------------------------------------------
 Center     Atomic      Atomic             Coordinates (Angstroms)
 Number     Number       Type             X           Y           Z
 ---------------------------------------------------------------------
      1          7           0        0.389329   -0.229118    0.417565
      2          7           0       -0.389344    0.229043   -0.417653
      3          6           0        1.789670   -0.503817    0.058851
      4          6           0       -1.789666    0.503808   -0.058920
      5          8           0       -2.242472    1.610606    0.062345
      6          8           0        2.242510   -1.610596   -0.062448
      7          8           0       -2.466567   -0.675698   -0.060842
      8          8           0        2.466549    0.675704    0.060907
      9          6           0        3.921945    0.592689   -0.046240
     10          1           0        4.204536    1.653993   -0.050680
     11          1           0        4.325790    0.068424    0.825554
     12          1           0        4.198149    0.094983   -0.981292
     13          6           0       -3.921955   -0.592641    0.046382
     14          1           0       -4.204567   -1.653939    0.050924
     15          1           0       -4.198093   -0.094854    0.981410
     16          1           0       -4.325838   -0.068437   -0.825431
 ---------------------------------------------------------------------
 Rotational constants (GHZ):      3.9664861      0.5472349      0.4888705
 Standard basis: VSTO-6G (5D, 7F)
 There are    46 symmetry adapted cartesian basis functions of A   symmetry.
 There are    46 symmetry adapted basis functions of A   symmetry.
    46 basis functions,   276 primitive gaussians,    46 cartesian basis functions
    28 alpha electrons       28 beta electrons
       nuclear repulsion energy       318.4599142023 Hartrees.
 Integral buffers will be    131072 words long.
 Regular integral format.
 Two-electron integral symmetry is turned off.
 Nuclear repulsion after empirical dispersion term =      318.4575757155 Hartrees.
 ------------------------------------------------------------------------------
 Polarizable Continuum Model (PCM)
 =================================
 Model                : C-PCM.
 Atomic radii         : UFF (Universal Force Field).
 Polarization charges : Total charges.
 Charge compensation  : None.
 Solution method      : On-the-fly selection.
 Cavity type          : Scaled VdW (van der Waals Surface) (Alpha=1.100).
 Cavity algorithm     : GePol (No added spheres)
                        Default sphere list used, NSphG=   16.
                        Lebedev-Laikov grids with approx.  5.0 points / Ang**2.
                        Smoothing algorithm: Karplus/York (Gamma=1.0000).
                        Polarization charges: spherical gaussians, with
                                              point-specific exponents (IZeta= 3).
                        Self-potential: point-specific (ISelfS= 7).
                        Self-field    : sphere-specific E.n sum rule (ISelfD= 2).
 1st derivatives      : Analytical E(r).r(x)/FMM algorithm (CHGder, D1EAlg=3).
                        Cavity 1st derivative terms included.
 Solvent              : Water, Eps=  78.355300 Eps(inf)=   1.777849
 ------------------------------------------------------------------------------
 Spheres list:
 ISph  on   Nord     Re0    Alpha      Xe            Ye            Ze
    1   N      1    1.8300  1.100      0.389329     -0.229118      0.417565
    2   N      2    1.8300  1.100     -0.389344      0.229043     -0.417653
    3   C      3    1.9255  1.100      1.789670     -0.503817      0.058851
    4   C      4    1.9255  1.100     -1.789666      0.503808     -0.058920
    5   O      5    1.7500  1.100     -2.242472      1.610606      0.062345
    6   O      6    1.7500  1.100      2.242510     -1.610596     -0.062448
    7   O      7    1.7500  1.100     -2.466567     -0.675698     -0.060842
    8   O      8    1.7500  1.100      2.466549      0.675704      0.060907
    9   C      9    1.9255  1.100      3.921945      0.592689     -0.046240
   10   H     10    1.4430  1.100      4.204536      1.653993     -0.050680
   11   H     11    1.4430  1.100      4.325790      0.068424      0.825554
   12   H     12    1.4430  1.100      4.198149      0.094983     -0.981292
   13   C     13    1.9255  1.100     -3.921955     -0.592641      0.046382
   14   H     14    1.4430  1.100     -4.204567     -1.653939      0.050924
   15   H     15    1.4430  1.100     -4.198093     -0.094854      0.981410
   16   H     16    1.4430  1.100     -4.325838     -0.068437     -0.825431
 ------------------------------------------------------------------------------
 Do NDO integrals.
 One-electron integrals computed using PRISM.
 NBasis=    46 RedAO= F EigKep=  0.00D+00  NBF=    46
 NBsUse=    46 1.00D-04 EigRej=  0.00D+00 NBFU=    46
 Simple Huckel Guess.
 Overlap will be assumed to be unity.
 Keep J ints in memory in canonical form, NReq=5841349.
 Requested convergence on RMS density matrix=1.00D-08 within 128 cycles.
 Requested convergence on MAX density matrix=1.00D-06.
 Requested convergence on             energy=1.00D-06.
 No special actions if energy rises.
 Inv3:  Mode=1 IEnd=     7699212.
 Iteration    1 A*A^-1 deviation from unit magnitude is 6.00D-15 for   1589.
 Iteration    1 A*A^-1 deviation from orthogonality  is 2.03D-15 for   1564    394.
 Iteration    1 A^-1*A deviation from unit magnitude is 5.77D-15 for   1589.
 Iteration    1 A^-1*A deviation from orthogonality  is 1.18D-15 for   1361   1200.
 Error on total polarization charges = -0.00053
 SCF Done:  E(RPM6D3) = -0.188373448224     A.U. after   16 cycles
            NFock= 15  Conv=0.36D-08     -V/T= 0.9942

 **********************************************************************

            Population analysis using the SCF density.

 **********************************************************************

 Orbital symmetries:
       Occupied  (A) (A) (A) (A) (A) (A) (A) (A) (A) (A) (A) (A)
                 (A) (A) (A) (A) (A) (A) (A) (A) (A) (A) (A) (A)
                 (A) (A) (A) (A)
       Virtual   (A) (A) (A) (A) (A) (A) (A) (A) (A) (A) (A) (A)
                 (A) (A) (A) (A) (A) (A)
 The electronic state is 1-A.
 Alpha  occ. eigenvalues --   -1.33227  -1.22740  -1.21926  -1.16951  -1.16529
 Alpha  occ. eigenvalues --   -1.04965  -0.97150  -0.92265  -0.84149  -0.76938
 Alpha  occ. eigenvalues --   -0.71804  -0.67772  -0.66033  -0.65082  -0.63532
 Alpha  occ. eigenvalues --   -0.61421  -0.57297  -0.57021  -0.56533  -0.54800
 Alpha  occ. eigenvalues --   -0.54529  -0.50997  -0.50819  -0.46615  -0.46292
 Alpha  occ. eigenvalues --   -0.44563  -0.44537  -0.38784
 Alpha virt. eigenvalues --   -0.06574  -0.03274  -0.01724  -0.00362   0.02444
 Alpha virt. eigenvalues --    0.05020   0.08490   0.08876   0.09567   0.13283
 Alpha virt. eigenvalues --    0.13393   0.13651   0.18175   0.18177   0.18241
 Alpha virt. eigenvalues --    0.18243   0.19772   0.19772
          Condensed to atoms (all electrons):
               1          2          3          4          5          6
     1  N    5.125300   0.000000   0.000000   0.000000   0.000000   0.000000
     2  N    0.000000   5.125303   0.000000   0.000000   0.000000   0.000000
     3  C    0.000000   0.000000   3.331570   0.000000   0.000000   0.000000
     4  C    0.000000   0.000000   0.000000   3.331569   0.000000   0.000000
     5  O    0.000000   0.000000   0.000000   0.000000   6.481529   0.000000
     6  O    0.000000   0.000000   0.000000   0.000000   0.000000   6.481534
     7  O    0.000000   0.000000   0.000000   0.000000   0.000000   0.000000
     8  O    0.000000   0.000000   0.000000   0.000000   0.000000   0.000000
     9  C    0.000000   0.000000   0.000000   0.000000   0.000000   0.000000
    10  H    0.000000   0.000000   0.000000   0.000000   0.000000   0.000000
    11  H    0.000000   0.000000   0.000000   0.000000   0.000000   0.000000
    12  H    0.000000   0.000000   0.000000   0.000000   0.000000   0.000000
    13  C    0.000000   0.000000   0.000000   0.000000   0.000000   0.000000
    14  H    0.000000   0.000000   0.000000   0.000000   0.000000   0.000000
    15  H    0.000000   0.000000   0.000000   0.000000   0.000000   0.000000
    16  H    0.000000   0.000000   0.000000   0.000000   0.000000   0.000000
               7          8          9         10         11         12
     1  N    0.000000   0.000000   0.000000   0.000000   0.000000   0.000000
     2  N    0.000000   0.000000   0.000000   0.000000   0.000000   0.000000
     3  C    0.000000   0.000000   0.000000   0.000000   0.000000   0.000000
     4  C    0.000000   0.000000   0.000000   0.000000   0.000000   0.000000
     5  O    0.000000   0.000000   0.000000   0.000000   0.000000   0.000000
     6  O    0.000000   0.000000   0.000000   0.000000   0.000000   0.000000
     7  O    6.389890   0.000000   0.000000   0.000000   0.000000   0.000000
     8  O    0.000000   6.389890   0.000000   0.000000   0.000000   0.000000
     9  C    0.000000   0.000000   4.176636   0.000000   0.000000   0.000000
    10  H    0.000000   0.000000   0.000000   0.819886   0.000000   0.000000
    11  H    0.000000   0.000000   0.000000   0.000000   0.837522   0.000000
    12  H    0.000000   0.000000   0.000000   0.000000   0.000000   0.837663
    13  C    0.000000   0.000000   0.000000   0.000000   0.000000   0.000000
    14  H    0.000000   0.000000   0.000000   0.000000   0.000000   0.000000
    15  H    0.000000   0.000000   0.000000   0.000000   0.000000   0.000000
    16  H    0.000000   0.000000   0.000000   0.000000   0.000000   0.000000
              13         14         15         16
     1  N    0.000000   0.000000   0.000000   0.000000
     2  N    0.000000   0.000000   0.000000   0.000000
     3  C    0.000000   0.000000   0.000000   0.000000
     4  C    0.000000   0.000000   0.000000   0.000000
     5  O    0.000000   0.000000   0.000000   0.000000
     6  O    0.000000   0.000000   0.000000   0.000000
     7  O    0.000000   0.000000   0.000000   0.000000
     8  O    0.000000   0.000000   0.000000   0.000000
     9  C    0.000000   0.000000   0.000000   0.000000
    10  H    0.000000   0.000000   0.000000   0.000000
    11  H    0.000000   0.000000   0.000000   0.000000
    12  H    0.000000   0.000000   0.000000   0.000000
    13  C    4.176638   0.000000   0.000000   0.000000
    14  H    0.000000   0.819886   0.000000   0.000000
    15  H    0.000000   0.000000   0.837662   0.000000
    16  H    0.000000   0.000000   0.000000   0.837522
 Mulliken charges:
               1
     1  N   -0.125300
     2  N   -0.125303
     3  C    0.668430
     4  C    0.668431
     5  O   -0.481529
     6  O   -0.481534
     7  O   -0.389890
     8  O   -0.389890
     9  C   -0.176636
    10  H    0.180114
    11  H    0.162478
    12  H    0.162337
    13  C   -0.176638
    14  H    0.180114
    15  H    0.162338
    16  H    0.162478
 Sum of Mulliken charges =   0.00000
 Mulliken charges with hydrogens summed into heavy atoms:
               1
     1  N   -0.125300
     2  N   -0.125303
     3  C    0.668430
     4  C    0.668431
     5  O   -0.481529
     6  O   -0.481534
     7  O   -0.389890
     8  O   -0.389890
     9  C    0.328293
    13  C    0.328292
 Charge=              0.0000 electrons
 Dipole moment (field-independent basis, Debye):
    X=             -0.0001    Y=              0.0001    Z=              0.0002  Tot=              0.0002
 N-N= 3.184575757155D+02 E-N=-5.641797106123D+02  KE=-3.221456277679D+01
 D1PCM: C-PCM CHGder 1st derivatives, ID1Alg=3 FixD1E=F DoIter=F DoCFld=F I1PDM=0.
 Calling FoFJK, ICntrl=      2127 FMM=F ISym2X=0 I1Cent= 0 IOpClX= 0 NMat=1 NMatS=1 NMatT=0.
 ***** Axes restored to original set *****
 -------------------------------------------------------------------
 Center     Atomic                   Forces (Hartrees/Bohr)
 Number     Number              X              Y              Z
 -------------------------------------------------------------------
      1        7           0.000310499    0.000977316   -0.000023056
      2        7          -0.000312679   -0.000982561    0.000022064
      3        6          -0.001392558   -0.004894464    0.000191417
      4        6           0.001393640    0.004896182   -0.000186309
      5        8           0.000008133   -0.002442221    0.000057806
      6        8          -0.000010391    0.002444801   -0.000060348
      7        8          -0.002696891   -0.002168953    0.000009424
      8        8           0.002699545    0.002168899   -0.000011030
      9        6          -0.001137963    0.000432510   -0.000161954
     10        1          -0.000199257   -0.000316481    0.000008380
     11        1          -0.000204787   -0.000146082    0.000197879
     12        1          -0.000187838   -0.000189483   -0.000185905
     13        6           0.001137955   -0.000431404    0.000161743
     14        1           0.000199765    0.000316415   -0.000008349
     15        1           0.000187917    0.000189364    0.000186044
     16        1           0.000204909    0.000146161   -0.000197805
 -------------------------------------------------------------------
 Cartesian Forces:  Max     0.004896182 RMS     0.001396625

 GradGradGradGradGradGradGradGradGradGradGradGradGradGradGradGradGradGrad
 Berny optimization.
 FormGI is forming the generalized inverse of G from B-inverse, IUseBI=4.
 Internal  Forces:  Max     0.002260429 RMS     0.000818421
 Search for a local minimum.
 Step number   1 out of a maximum of   62
 All quantities printed in internal units (Hartrees-Bohrs-Radians)
 Mixed Optimization -- En-DIIS/RFO-DIIS
 Second derivative matrix not updated -- first step.
 ITU=  0
     Eigenvalues ---    0.00747   0.00747   0.00876   0.00876   0.01641
     Eigenvalues ---    0.01641   0.02222   0.02222   0.03539   0.10156
     Eigenvalues ---    0.10156   0.10967   0.10967   0.16000   0.16000
     Eigenvalues ---    0.16000   0.16000   0.16000   0.16000   0.24896
     Eigenvalues ---    0.24896   0.25000   0.25000   0.25000   0.25000
     Eigenvalues ---    0.25000   0.25000   0.33872   0.33872   0.34277
     Eigenvalues ---    0.34278   0.34296   0.34296   0.35570   0.35570
     Eigenvalues ---    0.36753   0.36753   0.52959   0.52960   0.90929
     Eigenvalues ---    1.03838   1.03838
 RFO step:  Lambda=-1.08445395D-04 EMin= 7.46970506D-03
 Linear search not attempted -- first point.
 Iteration  1 RMS(Cart)=  0.01044576 RMS(Int)=  0.00010439
 Iteration  2 RMS(Cart)=  0.00009902 RMS(Int)=  0.00000707
 Iteration  3 RMS(Cart)=  0.00000004 RMS(Int)=  0.00000707
 Variable       Old X    -DE/DX   Delta X   Delta X   Delta X     New X
                                 (Linear)    (Quad)   (Total)
    R1        2.32508   0.00025   0.00000   0.00027   0.00027   2.32535
    R2        2.78059   0.00032   0.00000   0.00090   0.00090   2.78149
    R3        2.78059   0.00032   0.00000   0.00091   0.00091   2.78149
    R4        2.27140   0.00226   0.00000   0.00218   0.00218   2.27358
    R5        2.56992  -0.00218   0.00000  -0.00412  -0.00412   2.56580
    R6        2.27140   0.00226   0.00000   0.00217   0.00217   2.27357
    R7        2.56991  -0.00218   0.00000  -0.00411  -0.00411   2.56580
    R8        2.76220   0.00172   0.00000   0.00469   0.00469   2.76689
    R9        2.76220   0.00172   0.00000   0.00468   0.00468   2.76689
   R10        2.07547   0.00036   0.00000   0.00105   0.00105   2.07652
   R11        2.06834   0.00016   0.00000   0.00048   0.00048   2.06882
   R12        2.06864   0.00012   0.00000   0.00035   0.00035   2.06900
   R13        2.07547   0.00036   0.00000   0.00105   0.00105   2.07652
   R14        2.06864   0.00012   0.00000   0.00035   0.00035   2.06900
   R15        2.06834   0.00016   0.00000   0.00048   0.00048   2.06882
    A1        2.10172   0.00012   0.00000   0.00046   0.00046   2.10218
    A2        2.10172   0.00012   0.00000   0.00046   0.00046   2.10218
    A3        2.15922  -0.00117   0.00000  -0.00435  -0.00436   2.15486
    A4        1.88745   0.00021   0.00000   0.00119   0.00118   1.88864
    A5        2.22847   0.00097   0.00000   0.00427   0.00426   2.23273
    A6        2.15923  -0.00117   0.00000  -0.00437  -0.00438   2.15485
    A7        1.88745   0.00022   0.00000   0.00120   0.00119   1.88864
    A8        2.22847   0.00097   0.00000   0.00426   0.00425   2.23272
    A9        2.03332   0.00121   0.00000   0.00484   0.00484   2.03816
   A10        2.03332   0.00121   0.00000   0.00483   0.00483   2.03815
   A11        1.77379   0.00000   0.00000  -0.00049  -0.00049   1.77330
   A12        1.91367   0.00021   0.00000   0.00156   0.00155   1.91523
   A13        1.91736   0.00027   0.00000   0.00195   0.00195   1.91931
   A14        1.95104  -0.00026   0.00000  -0.00219  -0.00219   1.94885
   A15        1.95085  -0.00026   0.00000  -0.00210  -0.00210   1.94875
   A16        1.94925   0.00007   0.00000   0.00127   0.00127   1.95052
   A17        1.77379   0.00000   0.00000  -0.00049  -0.00049   1.77330
   A18        1.91736   0.00027   0.00000   0.00195   0.00195   1.91931
   A19        1.91367   0.00021   0.00000   0.00156   0.00155   1.91523
   A20        1.95085  -0.00026   0.00000  -0.00210  -0.00210   1.94875
   A21        1.95104  -0.00026   0.00000  -0.00219  -0.00219   1.94885
   A22        1.94925   0.00007   0.00000   0.00127   0.00127   1.95052
    D1       -3.14154   0.00000   0.00000  -0.00012  -0.00012   3.14153
    D2       -1.89981  -0.00009   0.00000  -0.02345  -0.02347  -1.92328
    D3        1.36854  -0.00033   0.00000  -0.03262  -0.03260   1.33594
    D4        1.89982   0.00009   0.00000   0.02350   0.02352   1.92334
    D5       -1.36848   0.00033   0.00000   0.03244   0.03243  -1.33605
    D6        2.96440   0.00004   0.00000   0.00497   0.00498   2.96938
    D7       -0.04393  -0.00001   0.00000  -0.00384  -0.00385  -0.04778
    D8       -2.96442  -0.00004   0.00000  -0.00485  -0.00486  -2.96928
    D9        0.04396   0.00001   0.00000   0.00372   0.00374   0.04769
   D10       -3.11423  -0.00001   0.00000  -0.00032  -0.00032  -3.11455
   D11       -1.04617  -0.00020   0.00000  -0.00214  -0.00214  -1.04831
   D12        1.10226   0.00020   0.00000   0.00178   0.00178   1.10404
   D13        3.11423   0.00001   0.00000   0.00032   0.00032   3.11455
   D14       -1.10226  -0.00020   0.00000  -0.00178  -0.00178  -1.10404
   D15        1.04617   0.00020   0.00000   0.00214   0.00215   1.04832
         Item               Value     Threshold  Converged?
 Maximum Force            0.002260     0.000450     NO 
 RMS     Force            0.000818     0.000300     NO 
 Maximum Displacement     0.024860     0.001800     NO 
 RMS     Displacement     0.010432     0.001200     NO 
 Predicted change in Energy=-5.441765D-05
 GradGradGradGradGradGradGradGradGradGradGradGradGradGradGradGradGradGrad

                          Input orientation:                          
 ---------------------------------------------------------------------
 Center     Atomic      Atomic             Coordinates (Angstroms)
 Number     Number       Type             X           Y           Z
 ---------------------------------------------------------------------
      1          7           0       -0.384595    0.242085    0.414890
      2          7           0        0.384576   -0.242198   -0.414587
      3          6           0       -1.787603    0.513276    0.062019
      4          6           0        1.787604   -0.513316   -0.061736
      5          8           0        2.238333   -1.621983    0.061585
      6          8           0       -2.238283    1.621960   -0.061325
      7          8           0        2.460571    0.665934   -0.061497
      8          8           0       -2.460587   -0.665965    0.061578
      9          6           0       -3.918930   -0.593172   -0.046763
     10          1           0       -4.193513   -1.657143   -0.052334
     11          1           0       -4.329009   -0.074574    0.825828
     12          1           0       -4.200137   -0.098431   -0.982116
     13          6           0        3.918930    0.593181    0.046670
     14          1           0        4.193495    1.657157    0.052102
     15          1           0        4.200262    0.098536    0.982037
     16          1           0        4.328910    0.074504   -0.825921
 ---------------------------------------------------------------------
                    Distance matrix (angstroms):
                    1          2          3          4          5
     1  N    0.000000
     2  N    1.230523   0.000000
     3  C    1.471902   2.348671   0.000000
     4  C    2.348670   1.471902   3.721735   0.000000
     5  O    3.237178   2.359440   4.557136   1.203124   0.000000
     6  O    2.359448   3.237170   1.203124   4.557101   5.529771
     7  O    2.915744   2.293280   4.252710   1.357762   2.301979
     8  O    2.293278   2.915692   1.357761   4.252720   4.795186
     9  C    3.660916   4.333433   2.403875   5.707112   6.243563
    10  H    4.281731   4.805434   3.242252   6.089515   6.432950
    11  H    3.978384   4.876947   2.718035   6.196226   6.790325
    12  H    4.077492   4.621943   2.699023   6.072254   6.698090
    13  C    4.333496   3.660912   5.707113   2.403880   2.780572
    14  H    4.805513   4.281731   6.089508   3.242257   3.817789
    15  H    4.622032   4.077514   6.072312   2.699027   2.767054
    16  H    4.876969   3.978350   6.196184   2.718041   2.834828
                    6          7          8          9         10
     6  O    0.000000
     7  O    4.795124   0.000000
     8  O    2.301983   5.099696   0.000000
     9  C    2.780575   6.502584   1.464173   0.000000
    10  H    3.817790   7.047950   1.999611   1.098846   0.000000
    11  H    2.834855   6.887241   2.103526   1.094771   1.814953
    12  H    2.767033   6.767335   2.106521   1.094866   1.814972
    13  C    6.243503   1.464174   6.502608   7.927687   8.419352
    14  H    6.432875   1.999614   7.047964   8.419335   9.018725
    15  H    6.698081   2.106521   6.767468   8.213293   8.637581
    16  H    6.790232   2.103527   6.887178   8.311423   8.730907
                   11         12         13         14         15
    11  H    0.000000
    12  H    1.812689   0.000000
    13  C    8.311527   8.213159   0.000000
    14  H    8.731015   8.637405   1.098846   0.000000
    15  H    8.532458   8.629218   1.094866   1.814972   0.000000
    16  H    8.815331   8.532230   1.094771   1.814953   1.812688
                   16
    16  H    0.000000
 Stoichiometry    C4H6N2O4
 Framework group  C1[X(C4H6N2O4)]
 Deg. of freedom    42
 Full point group                 C1      NOp   1
 Largest Abelian subgroup         C1      NOp   1
 Largest concise Abelian subgroup C1      NOp   1
                         Standard orientation:                         
 ---------------------------------------------------------------------
 Center     Atomic      Atomic             Coordinates (Angstroms)
 Number     Number       Type             X           Y           Z
 ---------------------------------------------------------------------
      1          7           0        0.385133   -0.242129    0.414304
      2          7           0       -0.385110    0.242207   -0.414147
      3          6           0        1.788661   -0.509742    0.060771
      4          6           0       -1.788658    0.509746   -0.060634
      5          8           0       -2.241651    1.617240    0.064912
      6          8           0        2.241606   -1.617253   -0.064800
      7          8           0       -2.459202   -0.670882   -0.062658
      8          8           0        2.459221    0.670877    0.062593
      9          6           0        3.917701    0.601294   -0.046026
     10          1           0        4.190098    1.665836   -0.049524
     11          1           0        4.328927    0.081820    0.825505
     12          1           0        4.199834    0.108975   -0.982377
     13          6           0       -3.917697   -0.601338    0.045785
     14          1           0       -4.190076   -1.665885    0.049144
     15          1           0       -4.199956   -0.109117    0.982150
     16          1           0       -4.328825   -0.081785   -0.825745
 ---------------------------------------------------------------------
 Rotational constants (GHZ):      3.9335517      0.5486976      0.4894801
 Standard basis: VSTO-6G (5D, 7F)
 There are    46 symmetry adapted cartesian basis functions of A   symmetry.
 There are    46 symmetry adapted basis functions of A   symmetry.
    46 basis functions,   276 primitive gaussians,    46 cartesian basis functions
    28 alpha electrons       28 beta electrons
       nuclear repulsion energy       318.4344683656 Hartrees.
 Integral buffers will be    131072 words long.
 Regular integral format.
 Two-electron integral symmetry is turned off.
 Nuclear repulsion after empirical dispersion term =      318.4321172527 Hartrees.
 ------------------------------------------------------------------------------
 Polarizable Continuum Model (PCM)
 =================================
 Model                : C-PCM.
 Atomic radii         : UFF (Universal Force Field).
 Polarization charges : Total charges.
 Charge compensation  : None.
 Solution method      : On-the-fly selection.
 Cavity type          : Scaled VdW (van der Waals Surface) (Alpha=1.100).
 Cavity algorithm     : GePol (No added spheres)
                        Default sphere list used, NSphG=   16.
                        Lebedev-Laikov grids with approx.  5.0 points / Ang**2.
                        Smoothing algorithm: Karplus/York (Gamma=1.0000).
                        Polarization charges: spherical gaussians, with
                                              point-specific exponents (IZeta= 3).
                        Self-potential: point-specific (ISelfS= 7).
                        Self-field    : sphere-specific E.n sum rule (ISelfD= 2).
 1st derivatives      : Analytical E(r).r(x)/FMM algorithm (CHGder, D1EAlg=3).
                        Cavity 1st derivative terms included.
 Solvent              : Water, Eps=  78.355300 Eps(inf)=   1.777849
 ------------------------------------------------------------------------------
 Spheres list:
 ISph  on   Nord     Re0    Alpha      Xe            Ye            Ze
    1   N      1    1.8300  1.100      0.385133     -0.242129      0.414304
    2   N      2    1.8300  1.100     -0.385110      0.242207     -0.414147
    3   C      3    1.9255  1.100      1.788661     -0.509742      0.060771
    4   C      4    1.9255  1.100     -1.788658      0.509746     -0.060634
    5   O      5    1.7500  1.100     -2.241651      1.617240      0.064912
    6   O      6    1.7500  1.100      2.241606     -1.617253     -0.064800
    7   O      7    1.7500  1.100     -2.459202     -0.670882     -0.062658
    8   O      8    1.7500  1.100      2.459221      0.670877      0.062593
    9   C      9    1.9255  1.100      3.917701      0.601294     -0.046026
   10   H     10    1.4430  1.100      4.190098      1.665836     -0.049524
   11   H     11    1.4430  1.100      4.328927      0.081820      0.825505
   12   H     12    1.4430  1.100      4.199834      0.108975     -0.982377
   13   C     13    1.9255  1.100     -3.917697     -0.601338      0.045785
   14   H     14    1.4430  1.100     -4.190076     -1.665885      0.049144
   15   H     15    1.4430  1.100     -4.199956     -0.109117      0.982150
   16   H     16    1.4430  1.100     -4.328825     -0.081785     -0.825745
 ------------------------------------------------------------------------------
 Do NDO integrals.
 One-electron integrals computed using PRISM.
 NBasis=    46 RedAO= F EigKep=  0.00D+00  NBF=    46
 NBsUse=    46 1.00D-04 EigRej=  0.00D+00 NBFU=    46
 Initial guess from the checkpoint file:  "dmad_cycloaddition_PM6_toluene_water.chk"
 B after Tr=     0.000000    0.000000    0.000000
         Rot=    0.999999   -0.001315    0.000051   -0.000200 Ang=  -0.15 deg.
 Overlap will be assumed to be unity.
 Keep J ints in memory in canonical form, NReq=5828069.
 Requested convergence on RMS density matrix=1.00D-08 within 128 cycles.
 Requested convergence on MAX density matrix=1.00D-06.
 Requested convergence on             energy=1.00D-06.
 No special actions if energy rises.
 Inv3:  Mode=1 IEnd=     7660812.
 Iteration    1 A*A^-1 deviation from unit magnitude is 5.00D-15 for   1594.
 Iteration    1 A*A^-1 deviation from orthogonality  is 1.67D-15 for   1598   1097.
 Iteration    1 A^-1*A deviation from unit magnitude is 5.22D-15 for   1594.
 Iteration    1 A^-1*A deviation from orthogonality  is 1.32D-15 for   1244    470.
 Error on total polarization charges = -0.00054
 SCF Done:  E(RPM6D3) = -0.188444695721     A.U. after   12 cycles
            NFock= 11  Conv=0.99D-08     -V/T= 0.9941
 D1PCM: C-PCM CHGder 1st derivatives, ID1Alg=3 FixD1E=F DoIter=F DoCFld=F I1PDM=0.
 Calling FoFJK, ICntrl=      2127 FMM=F ISym2X=0 I1Cent= 0 IOpClX= 0 NMat=1 NMatS=1 NMatT=0.
 ***** Axes restored to original set *****
 -------------------------------------------------------------------
 Center     Atomic                   Forces (Hartrees/Bohr)
 Number     Number              X              Y              Z
 -------------------------------------------------------------------
      1        7           0.000521179    0.000759251    0.000248502
      2        7          -0.000519686   -0.000753454   -0.000243807
      3        6          -0.001359365   -0.002592294   -0.000782256
      4        6           0.001359670    0.002587836    0.000765996
      5        8          -0.000298250   -0.000674497   -0.000336870
      6        8           0.000299649    0.000671917    0.000343655
      7        8          -0.000526806   -0.001479923   -0.000059366
      8        8           0.000524838    0.001482299    0.000063419
      9        6          -0.000336973    0.000205937   -0.000020201
     10        1           0.000069832   -0.000097594    0.000022441
     11        1           0.000210527   -0.000090226    0.000009384
     12        1           0.000242764   -0.000111725    0.000034603
     13        6           0.000336392   -0.000206946    0.000021084
     14        1          -0.000070374    0.000097513   -0.000022509
     15        1          -0.000242598    0.000111768   -0.000034578
     16        1          -0.000210799    0.000090137   -0.000009496
 -------------------------------------------------------------------
 Cartesian Forces:  Max     0.002592294 RMS     0.000749679

 GradGradGradGradGradGradGradGradGradGradGradGradGradGradGradGradGradGrad
 Berny optimization.
 Using GEDIIS/GDIIS optimizer.
 FormGI is forming the generalized inverse of G from B-inverse, IUseBI=4.
 Internal  Forces:  Max     0.001566317 RMS     0.000421032
 Search for a local minimum.
 Step number   2 out of a maximum of   62
 All quantities printed in internal units (Hartrees-Bohrs-Radians)
 Mixed Optimization -- En-DIIS/RFO-DIIS
 Swapping is turned off.
 Update second derivatives using D2CorX and points    1    2
 DE= -7.12D-05 DEPred=-5.44D-05 R= 1.31D+00
 TightC=F SS=  1.41D+00  RLast= 5.97D-02 DXNew= 5.0454D-01 1.7904D-01
 Trust test= 1.31D+00 RLast= 5.97D-02 DXMaxT set to 3.00D-01
 ITU=  1  0
     Eigenvalues ---    0.00484   0.00747   0.00876   0.00876   0.01629
     Eigenvalues ---    0.02133   0.02222   0.02255   0.03539   0.10038
     Eigenvalues ---    0.10131   0.10966   0.10966   0.15964   0.16000
     Eigenvalues ---    0.16000   0.16000   0.16000   0.16546   0.18661
     Eigenvalues ---    0.24910   0.24975   0.25000   0.25000   0.25000
     Eigenvalues ---    0.25000   0.26528   0.33806   0.33872   0.34277
     Eigenvalues ---    0.34282   0.34296   0.34371   0.35232   0.35570
     Eigenvalues ---    0.36753   0.41157   0.48075   0.52960   0.90989
     Eigenvalues ---    1.03836   1.03908
 En-DIIS/RFO-DIIS IScMMF=        0 using points:     2    1
 RFO step:  Lambda=-2.41091344D-05.
 DidBck=F Rises=F RFO-DIIS coefs:    1.42222   -0.42222
 Iteration  1 RMS(Cart)=  0.01674948 RMS(Int)=  0.00026302
 Iteration  2 RMS(Cart)=  0.00036737 RMS(Int)=  0.00006926
 Iteration  3 RMS(Cart)=  0.00000016 RMS(Int)=  0.00006926
 Variable       Old X    -DE/DX   Delta X   Delta X   Delta X     New X
                                 (Linear)    (Quad)   (Total)
    R1        2.32535  -0.00004   0.00012   0.00008   0.00020   2.32555
    R2        2.78149   0.00031   0.00038   0.00173   0.00211   2.78360
    R3        2.78149   0.00031   0.00038   0.00172   0.00211   2.78360
    R4        2.27358   0.00047   0.00092   0.00184   0.00276   2.27634
    R5        2.56580  -0.00157  -0.00174  -0.00648  -0.00822   2.55758
    R6        2.27357   0.00047   0.00092   0.00185   0.00277   2.27634
    R7        2.56580  -0.00157  -0.00174  -0.00647  -0.00821   2.55759
    R8        2.76689  -0.00019   0.00198   0.00184   0.00382   2.77070
    R9        2.76689  -0.00019   0.00198   0.00184   0.00382   2.77070
   R10        2.07652   0.00008   0.00044   0.00089   0.00134   2.07785
   R11        2.06882  -0.00011   0.00020  -0.00020   0.00000   2.06882
   R12        2.06900  -0.00014   0.00015  -0.00039  -0.00024   2.06875
   R13        2.07652   0.00007   0.00044   0.00089   0.00133   2.07785
   R14        2.06900  -0.00014   0.00015  -0.00039  -0.00024   2.06875
   R15        2.06882  -0.00011   0.00020  -0.00020   0.00000   2.06882
    A1        2.10218  -0.00012   0.00020  -0.00043  -0.00024   2.10194
    A2        2.10218  -0.00012   0.00019  -0.00042  -0.00023   2.10195
    A3        2.15486  -0.00093  -0.00184  -0.00920  -0.01122   2.14364
    A4        1.88864   0.00046   0.00050   0.00176   0.00208   1.89072
    A5        2.23273   0.00042   0.00180   0.00315   0.00475   2.23748
    A6        2.15485  -0.00093  -0.00185  -0.00916  -0.01117   2.14368
    A7        1.88864   0.00046   0.00050   0.00179   0.00212   1.89075
    A8        2.23272   0.00042   0.00179   0.00318   0.00479   2.23751
    A9        2.03816   0.00009   0.00204   0.00318   0.00522   2.04338
   A10        2.03815   0.00009   0.00204   0.00319   0.00523   2.04338
   A11        1.77330  -0.00009  -0.00021  -0.00112  -0.00133   1.77197
   A12        1.91523  -0.00021   0.00066  -0.00098  -0.00033   1.91490
   A13        1.91931  -0.00025   0.00082  -0.00111  -0.00028   1.91902
   A14        1.94885   0.00010  -0.00092  -0.00036  -0.00129   1.94756
   A15        1.94875   0.00012  -0.00089  -0.00017  -0.00106   1.94769
   A16        1.95052   0.00027   0.00054   0.00324   0.00377   1.95429
   A17        1.77330  -0.00009  -0.00021  -0.00113  -0.00133   1.77197
   A18        1.91931  -0.00025   0.00082  -0.00110  -0.00028   1.91903
   A19        1.91523  -0.00021   0.00066  -0.00098  -0.00033   1.91490
   A20        1.94875   0.00012  -0.00089  -0.00017  -0.00106   1.94769
   A21        1.94885   0.00010  -0.00093  -0.00036  -0.00129   1.94756
   A22        1.95052   0.00027   0.00054   0.00324   0.00377   1.95429
    D1        3.14153   0.00000  -0.00005   0.00010   0.00005   3.14158
    D2       -1.92328  -0.00034  -0.00991  -0.05898  -0.06878  -1.99206
    D3        1.33594   0.00007  -0.01377  -0.02324  -0.03711   1.29883
    D4        1.92334   0.00034   0.00993   0.05853   0.06836   1.99170
    D5       -1.33605  -0.00006   0.01369   0.02373   0.03752  -1.29853
    D6        2.96938  -0.00031   0.00210  -0.02108  -0.01905   2.95033
    D7       -0.04778   0.00025  -0.00163   0.01781   0.01625  -0.03152
    D8       -2.96928   0.00030  -0.00205   0.02055   0.01857  -2.95071
    D9        0.04769  -0.00024   0.00158  -0.01736  -0.01585   0.03185
   D10       -3.11455   0.00001  -0.00013   0.00074   0.00061  -3.11394
   D11       -1.04831  -0.00001  -0.00091  -0.00052  -0.00143  -1.04974
   D12        1.10404   0.00002   0.00075   0.00215   0.00291   1.10694
   D13        3.11455  -0.00001   0.00013  -0.00075  -0.00062   3.11393
   D14       -1.10404  -0.00002  -0.00075  -0.00216  -0.00291  -1.10695
   D15        1.04832   0.00001   0.00091   0.00051   0.00142   1.04973
         Item               Value     Threshold  Converged?
 Maximum Force            0.001566     0.000450     NO 
 RMS     Force            0.000421     0.000300     NO 
 Maximum Displacement     0.037785     0.001800     NO 
 RMS     Displacement     0.016923     0.001200     NO 
 Predicted change in Energy=-5.906411D-05
 GradGradGradGradGradGradGradGradGradGradGradGradGradGradGradGradGradGrad

                          Input orientation:                          
 ---------------------------------------------------------------------
 Center     Atomic      Atomic             Coordinates (Angstroms)
 Number     Number       Type             X           Y           Z
 ---------------------------------------------------------------------
      1          7           0       -0.382876    0.261083    0.404472
      2          7           0        0.382932   -0.261163   -0.404996
      3          6           0       -1.786383    0.522960    0.042024
      4          6           0        1.786444   -0.523032   -0.042564
      5          8           0        2.238388   -1.635129    0.057523
      6          8           0       -2.238381    1.635067   -0.057697
      7          8           0        2.453751    0.654433   -0.045861
      8          8           0       -2.453740   -0.654473    0.045686
      9          6           0       -3.915767   -0.593244   -0.046256
     10          1           0       -4.180443   -1.660450   -0.051954
     11          1           0       -4.320100   -0.082674    0.833720
     12          1           0       -4.211146   -0.099897   -0.977818
     13          6           0        3.915745    0.593260    0.046626
     14          1           0        4.180371    1.660478    0.052517
     15          1           0        4.210798    0.099845    0.978255
     16          1           0        4.320429    0.082786   -0.833244
 ---------------------------------------------------------------------
                    Distance matrix (angstroms):
                    1          2          3          4          5
     1  N    0.000000
     2  N    1.230626   0.000000
     3  C    1.473017   2.349596   0.000000
     4  C    2.349601   1.473017   3.723754   0.000000
     5  O    3.253770   2.354660   4.566877   1.204587   0.000000
     6  O    2.354640   3.253857   1.204587   4.566928   5.545171
     7  O    2.898961   2.292506   4.243082   1.353416   2.301991
     8  O    2.292477   2.899055   1.353414   4.243139   4.793527
     9  C    3.662561   4.326406   2.405822   5.702644   6.242589
    10  H    4.280436   4.786129   3.241548   6.074335   6.419814
    11  H    3.975444   4.866701   2.722737   6.184793   6.784273
    12  H    4.086158   4.632460   2.703240   6.084803   6.710094
    13  C    4.326261   3.662618   5.702563   2.405824   2.789151
    14  H    4.785958   4.280486   6.074225   3.241550   3.825225
    15  H    4.632177   4.086107   6.084549   2.703247   2.783574
    16  H    4.866704   3.975623   6.184900   2.722732   2.842462
                    6          7          8          9         10
     6  O    0.000000
     7  O    4.793525   0.000000
     8  O    2.301970   5.079871   0.000000
     9  C    2.789108   6.490567   1.466194   0.000000
    10  H    3.825189   7.026468   2.000756   1.099552   0.000000
    11  H    2.842326   6.870374   2.105053   1.094771   1.814745
    12  H    2.783618   6.771884   2.107982   1.094736   1.814798
    13  C    6.242556   1.466193   6.490546   7.921427   8.404593
    14  H    6.419748   2.000755   7.026413   8.404550   8.996815
    15  H    6.709845   2.107984   6.771614   8.220162   8.635560
    16  H    6.784470   2.105050   6.870621   8.301282   8.712870
                   11         12         13         14         15
    11  H    0.000000
    12  H    1.814894   0.000000
    13  C    8.300936   8.220481   0.000000
    14  H    8.712454   8.635860   1.099552   0.000000
    15  H    8.534074   8.648426   1.094737   1.814798   0.000000
    16  H    8.801413   8.534755   1.094771   1.814745   1.814894
                   16
    16  H    0.000000
 Stoichiometry    C4H6N2O4
 Framework group  C1[X(C4H6N2O4)]
 Deg. of freedom    42
 Full point group                 C1      NOp   1
 Largest Abelian subgroup         C1      NOp   1
 Largest concise Abelian subgroup C1      NOp   1
                         Standard orientation:                         
 ---------------------------------------------------------------------
 Center     Atomic      Atomic             Coordinates (Angstroms)
 Number     Number       Type             X           Y           Z
 ---------------------------------------------------------------------
      1          7           0        0.383470   -0.261506    0.403736
      2          7           0       -0.383508    0.261545   -0.404102
      3          6           0        1.788838   -0.514542    0.042220
      4          6           0       -1.788881    0.514574   -0.042601
      5          8           0       -2.246389    1.623889    0.062932
      6          8           0        2.246399   -1.623869   -0.062948
      7          8           0       -2.450454   -0.666076   -0.053618
      8          8           0        2.450461    0.666074    0.053601
      9          6           0        3.912920    0.612448   -0.036192
     10          1           0        4.172418    1.680941   -0.035473
     11          1           0        4.318253    0.098926    0.841603
     12          1           0        4.212253    0.125764   -0.969994
     13          6           0       -3.912881   -0.612510    0.036720
     14          1           0       -4.172329   -1.681015    0.036193
     15          1           0       -4.211888   -0.125756    0.970590
     16          1           0       -4.318565   -0.099085   -0.840969
 ---------------------------------------------------------------------
 Rotational constants (GHZ):      3.9043064      0.5500161      0.4897512
 Standard basis: VSTO-6G (5D, 7F)
 There are    46 symmetry adapted cartesian basis functions of A   symmetry.
 There are    46 symmetry adapted basis functions of A   symmetry.
    46 basis functions,   276 primitive gaussians,    46 cartesian basis functions
    28 alpha electrons       28 beta electrons
       nuclear repulsion energy       318.4401800907 Hartrees.
 Integral buffers will be    131072 words long.
 Regular integral format.
 Two-electron integral symmetry is turned off.
 Nuclear repulsion after empirical dispersion term =      318.4378185443 Hartrees.
 ------------------------------------------------------------------------------
 Polarizable Continuum Model (PCM)
 =================================
 Model                : C-PCM.
 Atomic radii         : UFF (Universal Force Field).
 Polarization charges : Total charges.
 Charge compensation  : None.
 Solution method      : On-the-fly selection.
 Cavity type          : Scaled VdW (van der Waals Surface) (Alpha=1.100).
 Cavity algorithm     : GePol (No added spheres)
                        Default sphere list used, NSphG=   16.
                        Lebedev-Laikov grids with approx.  5.0 points / Ang**2.
                        Smoothing algorithm: Karplus/York (Gamma=1.0000).
                        Polarization charges: spherical gaussians, with
                                              point-specific exponents (IZeta= 3).
                        Self-potential: point-specific (ISelfS= 7).
                        Self-field    : sphere-specific E.n sum rule (ISelfD= 2).
 1st derivatives      : Analytical E(r).r(x)/FMM algorithm (CHGder, D1EAlg=3).
                        Cavity 1st derivative terms included.
 Solvent              : Water, Eps=  78.355300 Eps(inf)=   1.777849
 ------------------------------------------------------------------------------
 Spheres list:
 ISph  on   Nord     Re0    Alpha      Xe            Ye            Ze
    1   N      1    1.8300  1.100      0.383470     -0.261506      0.403736
    2   N      2    1.8300  1.100     -0.383508      0.261545     -0.404102
    3   C      3    1.9255  1.100      1.788838     -0.514542      0.042220
    4   C      4    1.9255  1.100     -1.788881      0.514574     -0.042601
    5   O      5    1.7500  1.100     -2.246389      1.623889      0.062932
    6   O      6    1.7500  1.100      2.246399     -1.623869     -0.062948
    7   O      7    1.7500  1.100     -2.450454     -0.666076     -0.053618
    8   O      8    1.7500  1.100      2.450461      0.666074      0.053601
    9   C      9    1.9255  1.100      3.912920      0.612448     -0.036192
   10   H     10    1.4430  1.100      4.172418      1.680941     -0.035473
   11   H     11    1.4430  1.100      4.318253      0.098926      0.841603
   12   H     12    1.4430  1.100      4.212253      0.125764     -0.969994
   13   C     13    1.9255  1.100     -3.912881     -0.612510      0.036720
   14   H     14    1.4430  1.100     -4.172329     -1.681015      0.036193
   15   H     15    1.4430  1.100     -4.211888     -0.125756      0.970590
   16   H     16    1.4430  1.100     -4.318565     -0.099085     -0.840969
 ------------------------------------------------------------------------------
 Do NDO integrals.
 One-electron integrals computed using PRISM.
 NBasis=    46 RedAO= F EigKep=  0.00D+00  NBF=    46
 NBsUse=    46 1.00D-04 EigRej=  0.00D+00 NBFU=    46
 Initial guess from the checkpoint file:  "dmad_cycloaddition_PM6_toluene_water.chk"
 B after Tr=     0.000000    0.000000    0.000000
         Rot=    0.999998   -0.001770    0.000116   -0.000534 Ang=  -0.21 deg.
 Overlap will be assumed to be unity.
 Keep J ints in memory in canonical form, NReq=5801157.
 Requested convergence on RMS density matrix=1.00D-08 within 128 cycles.
 Requested convergence on MAX density matrix=1.00D-06.
 Requested convergence on             energy=1.00D-06.
 No special actions if energy rises.
 Inv3:  Mode=1 IEnd=     7584300.
 Iteration    1 A*A^-1 deviation from unit magnitude is 4.88D-15 for   1580.
 Iteration    1 A*A^-1 deviation from orthogonality  is 2.10D-15 for   1583    801.
 Iteration    1 A^-1*A deviation from unit magnitude is 4.88D-15 for   1580.
 Iteration    1 A^-1*A deviation from orthogonality  is 1.53D-15 for   1141    476.
 Error on total polarization charges = -0.00054
 SCF Done:  E(RPM6D3) = -0.188411360812     A.U. after   13 cycles
            NFock= 12  Conv=0.51D-08     -V/T= 0.9942
 D1PCM: C-PCM CHGder 1st derivatives, ID1Alg=3 FixD1E=F DoIter=F DoCFld=F I1PDM=0.
 Calling FoFJK, ICntrl=      2127 FMM=F ISym2X=0 I1Cent= 0 IOpClX= 0 NMat=1 NMatS=1 NMatT=0.
 ***** Axes restored to original set *****
 -------------------------------------------------------------------
 Center     Atomic                   Forces (Hartrees/Bohr)
 Number     Number              X              Y              Z
 -------------------------------------------------------------------
      1        7           0.000072832   -0.000115631   -0.001517100
      2        7          -0.000068150    0.000115921    0.001493887
      3        6          -0.000707854    0.001771634    0.002908126
      4        6           0.000701869   -0.001769177   -0.002838901
      5        8          -0.000601657    0.001107943    0.001029514
      6        8           0.000604177   -0.001102101   -0.001056390
      7        8           0.001604247    0.000769757    0.000759245
      8        8          -0.001606254   -0.000777741   -0.000774389
      9        6           0.000388140   -0.000251168   -0.000136556
     10        1           0.000198247    0.000195343    0.000023006
     11        1           0.000394114    0.000055208   -0.000149721
     12        1           0.000305887    0.000023731    0.000174472
     13        6          -0.000387772    0.000250216    0.000132533
     14        1          -0.000198161   -0.000195059   -0.000023032
     15        1          -0.000306712   -0.000023930   -0.000174401
     16        1          -0.000392956   -0.000054945    0.000149708
 -------------------------------------------------------------------
 Cartesian Forces:  Max     0.002908126 RMS     0.000940415

 GradGradGradGradGradGradGradGradGradGradGradGradGradGradGradGradGradGrad
 Berny optimization.
 Using GEDIIS/GDIIS optimizer.
 FormGI is forming the generalized inverse of G from B-inverse, IUseBI=4.
 Internal  Forces:  Max     0.001283843 RMS     0.000639472
 Search for a local minimum.
 Step number   3 out of a maximum of   62
 All quantities printed in internal units (Hartrees-Bohrs-Radians)
 Mixed Optimization -- En-DIIS/RFO-DIIS
 Swapping is turned off.
 Update second derivatives using D2CorX and points    1    2    3
 DE=  3.33D-05 DEPred=-5.91D-05 R=-5.64D-01
 Trust test=-5.64D-01 RLast= 1.18D-01 DXMaxT set to 1.50D-01
 ITU= -1  1  0
     Eigenvalues ---    0.00377   0.00747   0.00876   0.00876   0.01702
     Eigenvalues ---    0.02217   0.02222   0.03539   0.05478   0.10030
     Eigenvalues ---    0.10126   0.10976   0.10978   0.14983   0.16000
     Eigenvalues ---    0.16000   0.16000   0.16007   0.16080   0.17877
     Eigenvalues ---    0.24855   0.24960   0.25000   0.25000   0.25000
     Eigenvalues ---    0.25551   0.26790   0.33845   0.33872   0.34277
     Eigenvalues ---    0.34281   0.34296   0.34359   0.35194   0.35570
     Eigenvalues ---    0.36753   0.44077   0.47672   0.52960   0.91001
     Eigenvalues ---    1.03838   1.05109
 En-DIIS/RFO-DIIS IScMMF=        0 using points:     3    2    1
 RFO step:  Lambda=-5.37774228D-05.
 DidBck=T Rises=F RFO-DIIS coefs:    0.33626    1.13798   -0.47424
 Iteration  1 RMS(Cart)=  0.00895912 RMS(Int)=  0.00007270
 Iteration  2 RMS(Cart)=  0.00017849 RMS(Int)=  0.00002030
 Iteration  3 RMS(Cart)=  0.00000001 RMS(Int)=  0.00002030
 Variable       Old X    -DE/DX   Delta X   Delta X   Delta X     New X
                                 (Linear)    (Quad)   (Total)
    R1        2.32555  -0.00018   0.00000  -0.00013  -0.00013   2.32541
    R2        2.78360   0.00013  -0.00097   0.00109   0.00012   2.78372
    R3        2.78360   0.00014  -0.00097   0.00109   0.00012   2.78372
    R4        2.27634  -0.00116  -0.00080   0.00008  -0.00072   2.27562
    R5        2.55758   0.00081   0.00350  -0.00282   0.00068   2.55826
    R6        2.27634  -0.00117  -0.00080   0.00009  -0.00072   2.27562
    R7        2.55759   0.00080   0.00350  -0.00283   0.00067   2.55826
    R8        2.77070  -0.00127  -0.00031  -0.00192  -0.00223   2.76848
    R9        2.77070  -0.00128  -0.00031  -0.00191  -0.00223   2.76848
   R10        2.07785  -0.00024  -0.00039  -0.00001  -0.00040   2.07746
   R11        2.06882  -0.00024   0.00023  -0.00063  -0.00040   2.06842
   R12        2.06875  -0.00022   0.00033  -0.00070  -0.00037   2.06838
   R13        2.07785  -0.00024  -0.00039  -0.00001  -0.00040   2.07746
   R14        2.06875  -0.00022   0.00033  -0.00070  -0.00037   2.06838
   R15        2.06882  -0.00024   0.00023  -0.00063  -0.00040   2.06842
    A1        2.10194   0.00069   0.00038   0.00023   0.00061   2.10255
    A2        2.10195   0.00068   0.00037   0.00023   0.00060   2.10255
    A3        2.14364  -0.00015   0.00538  -0.00416   0.00121   2.14485
    A4        1.89072   0.00069  -0.00082   0.00318   0.00236   1.89308
    A5        2.23748  -0.00021  -0.00113   0.00173   0.00060   2.23808
    A6        2.14368  -0.00015   0.00534  -0.00415   0.00118   2.14486
    A7        1.89075   0.00069  -0.00084   0.00316   0.00232   1.89307
    A8        2.23751  -0.00022  -0.00117   0.00173   0.00056   2.23807
    A9        2.04338  -0.00066  -0.00117  -0.00062  -0.00180   2.04158
   A10        2.04338  -0.00066  -0.00118  -0.00061  -0.00179   2.04159
   A11        1.77197  -0.00004   0.00065  -0.00066   0.00000   1.77197
   A12        1.91490  -0.00046   0.00095  -0.00254  -0.00159   1.91331
   A13        1.91902  -0.00032   0.00111  -0.00258  -0.00146   1.91756
   A14        1.94756   0.00030  -0.00019   0.00149   0.00130   1.94887
   A15        1.94769   0.00028  -0.00029   0.00158   0.00129   1.94898
   A16        1.95429   0.00019  -0.00190   0.00221   0.00030   1.95460
   A17        1.77197  -0.00004   0.00065  -0.00066  -0.00001   1.77196
   A18        1.91903  -0.00032   0.00111  -0.00258  -0.00147   1.91756
   A19        1.91490  -0.00046   0.00096  -0.00254  -0.00158   1.91331
   A20        1.94769   0.00028  -0.00029   0.00158   0.00129   1.94898
   A21        1.94756   0.00030  -0.00019   0.00149   0.00130   1.94887
   A22        1.95429   0.00019  -0.00190   0.00221   0.00030   1.95460
    D1        3.14158   0.00000  -0.00009   0.00017   0.00009  -3.14152
    D2       -1.99206   0.00112   0.03452  -0.01499   0.01948  -1.97258
    D3        1.29883  -0.00101   0.00917  -0.02012  -0.01090   1.28793
    D4        1.99170  -0.00109  -0.03422   0.01511  -0.01906   1.97264
    D5       -1.29853   0.00098  -0.00952   0.02022   0.01064  -1.28789
    D6        2.95033   0.00128   0.01501   0.00266   0.01772   2.96805
    D7       -0.03152  -0.00101  -0.01261  -0.00218  -0.01484  -0.04637
    D8       -2.95071  -0.00125  -0.01463  -0.00265  -0.01733  -2.96804
    D9        0.03185   0.00098   0.01229   0.00217   0.01451   0.04636
   D10       -3.11394  -0.00001  -0.00055   0.00086   0.00031  -3.11363
   D11       -1.04974   0.00015  -0.00007   0.00123   0.00115  -1.04858
   D12        1.10694  -0.00014  -0.00108   0.00057  -0.00051   1.10644
   D13        3.11393   0.00001   0.00056  -0.00086  -0.00030   3.11363
   D14       -1.10695   0.00014   0.00109  -0.00057   0.00051  -1.10644
   D15        1.04973  -0.00015   0.00008  -0.00123  -0.00115   1.04858
         Item               Value     Threshold  Converged?
 Maximum Force            0.001284     0.000450     NO 
 RMS     Force            0.000639     0.000300     NO 
 Maximum Displacement     0.029525     0.001800     NO 
 RMS     Displacement     0.009000     0.001200     NO 
 Predicted change in Energy=-8.522661D-05
 GradGradGradGradGradGradGradGradGradGradGradGradGradGradGradGradGradGrad

                          Input orientation:                          
 ---------------------------------------------------------------------
 Center     Atomic      Atomic             Coordinates (Angstroms)
 Number     Number       Type             X           Y           Z
 ---------------------------------------------------------------------
      1          7           0       -0.379352    0.262197    0.407322
      2          7           0        0.379361   -0.262086   -0.407387
      3          6           0       -1.786475    0.522380    0.057648
      4          6           0        1.786460   -0.522356   -0.057680
      5          8           0        2.236271   -1.633147    0.060337
      6          8           0       -2.236324    1.633146   -0.060461
      7          8           0        2.453076    0.655915   -0.056857
      8          8           0       -2.453054   -0.655913    0.056950
      9          6           0       -3.913058   -0.593391   -0.046730
     10          1           0       -4.178634   -1.660147   -0.054135
     11          1           0       -4.322252   -0.081229    0.829805
     12          1           0       -4.198838   -0.099276   -0.980646
     13          6           0        3.913074    0.593329    0.046862
     14          1           0        4.178687    1.660076    0.054370
     15          1           0        4.198808    0.099121    0.980741
     16          1           0        4.322275    0.081232   -0.829708
 ---------------------------------------------------------------------
                    Distance matrix (angstroms):
                    1          2          3          4          5
     1  N    0.000000
     2  N    1.230556   0.000000
     3  C    1.473080   2.349998   0.000000
     4  C    2.349998   1.473079   3.724331   0.000000
     5  O    3.248724   2.355140   4.563857   1.204207   0.000000
     6  O    2.355137   3.248703   1.204207   4.563879   5.539618
     7  O    2.897089   2.294753   4.243199   1.353773   2.302291
     8  O    2.294761   2.897117   1.353774   4.243166   4.790070
     9  C    3.664052   4.320266   2.403787   5.699971   6.237532
    10  H    4.282861   4.780657   3.240116   6.072638   6.415983
    11  H    3.980314   4.865030   2.718591   6.188585   6.783417
    12  H    4.079901   4.616821   2.698889   6.070803   6.696792
    13  C    4.320243   3.664042   5.700001   2.403782   2.787301
    14  H    4.780623   4.282850   6.072686   3.240110   3.823392
    15  H    4.616811   4.079895   6.070821   2.698884   2.774788
    16  H    4.865006   3.980301   6.188606   2.718585   2.843007
                    6          7          8          9         10
     6  O    0.000000
     7  O    4.790143   0.000000
     8  O    2.302291   5.079760   0.000000
     9  C    2.787309   6.487568   1.465015   0.000000
    10  H    3.823400   7.024510   1.999613   1.099343   0.000000
    11  H    2.843018   6.872745   2.102728   1.094561   1.815202
    12  H    2.774795   6.758081   2.105756   1.094539   1.815254
    13  C    6.237614   1.465014   6.487549   7.916148   8.400244
    14  H    6.416095   1.999610   7.024514   8.400277   8.993357
    15  H    6.696884   2.105756   6.758013   8.205951   8.622502
    16  H    6.783465   2.102728   6.872746   8.299933   8.712025
                   11         12         13         14         15
    11  H    0.000000
    12  H    1.814742   0.000000
    13  C    8.299917   8.206009   0.000000
    14  H    8.712026   8.622615   1.099343   0.000000
    15  H    8.524305   8.625941   1.094540   1.815255   0.000000
    16  H    8.803876   8.524361   1.094561   1.815202   1.814743
                   16
    16  H    0.000000
 Stoichiometry    C4H6N2O4
 Framework group  C1[X(C4H6N2O4)]
 Deg. of freedom    42
 Full point group                 C1      NOp   1
 Largest Abelian subgroup         C1      NOp   1
 Largest concise Abelian subgroup C1      NOp   1
                         Standard orientation:                         
 ---------------------------------------------------------------------
 Center     Atomic      Atomic             Coordinates (Angstroms)
 Number     Number       Type             X           Y           Z
 ---------------------------------------------------------------------
      1          7           0        0.380337   -0.262272    0.406345
      2          7           0       -0.380349    0.262170   -0.406419
      3          6           0        1.788790   -0.514543    0.056227
      4          6           0       -1.788779    0.514527   -0.056267
      5          8           0       -2.243666    1.622741    0.066430
      6          8           0        2.243716   -1.622730   -0.066563
      7          8           0       -2.450058   -0.666738   -0.060981
      8          8           0        2.450033    0.666744    0.061066
      9          6           0        3.910354    0.611282   -0.042162
     10          1           0        4.171105    1.679251   -0.044722
     11          1           0        4.321441    0.097108    0.832307
     12          1           0        4.198813    0.122597   -0.978108
     13          6           0       -3.910374   -0.611213    0.042285
     14          1           0       -4.171162   -1.679172    0.044949
     15          1           0       -4.198788   -0.122433    0.978195
     16          1           0       -4.321468   -0.097102   -0.832218
 ---------------------------------------------------------------------
 Rotational constants (GHZ):      3.9038929      0.5506481      0.4903814
 Standard basis: VSTO-6G (5D, 7F)
 There are    46 symmetry adapted cartesian basis functions of A   symmetry.
 There are    46 symmetry adapted basis functions of A   symmetry.
    46 basis functions,   276 primitive gaussians,    46 cartesian basis functions
    28 alpha electrons       28 beta electrons
       nuclear repulsion energy       318.5145325576 Hartrees.
 Integral buffers will be    131072 words long.
 Regular integral format.
 Two-electron integral symmetry is turned off.
 Nuclear repulsion after empirical dispersion term =      318.5121767118 Hartrees.
 ------------------------------------------------------------------------------
 Polarizable Continuum Model (PCM)
 =================================
 Model                : C-PCM.
 Atomic radii         : UFF (Universal Force Field).
 Polarization charges : Total charges.
 Charge compensation  : None.
 Solution method      : On-the-fly selection.
 Cavity type          : Scaled VdW (van der Waals Surface) (Alpha=1.100).
 Cavity algorithm     : GePol (No added spheres)
                        Default sphere list used, NSphG=   16.
                        Lebedev-Laikov grids with approx.  5.0 points / Ang**2.
                        Smoothing algorithm: Karplus/York (Gamma=1.0000).
                        Polarization charges: spherical gaussians, with
                                              point-specific exponents (IZeta= 3).
                        Self-potential: point-specific (ISelfS= 7).
                        Self-field    : sphere-specific E.n sum rule (ISelfD= 2).
 1st derivatives      : Analytical E(r).r(x)/FMM algorithm (CHGder, D1EAlg=3).
                        Cavity 1st derivative terms included.
 Solvent              : Water, Eps=  78.355300 Eps(inf)=   1.777849
 ------------------------------------------------------------------------------
 Spheres list:
 ISph  on   Nord     Re0    Alpha      Xe            Ye            Ze
    1   N      1    1.8300  1.100      0.380337     -0.262272      0.406345
    2   N      2    1.8300  1.100     -0.380349      0.262170     -0.406419
    3   C      3    1.9255  1.100      1.788790     -0.514543      0.056227
    4   C      4    1.9255  1.100     -1.788779      0.514527     -0.056267
    5   O      5    1.7500  1.100     -2.243666      1.622741      0.066430
    6   O      6    1.7500  1.100      2.243716     -1.622730     -0.066563
    7   O      7    1.7500  1.100     -2.450058     -0.666738     -0.060981
    8   O      8    1.7500  1.100      2.450033      0.666744      0.061066
    9   C      9    1.9255  1.100      3.910354      0.611282     -0.042162
   10   H     10    1.4430  1.100      4.171105      1.679251     -0.044722
   11   H     11    1.4430  1.100      4.321441      0.097108      0.832307
   12   H     12    1.4430  1.100      4.198813      0.122597     -0.978108
   13   C     13    1.9255  1.100     -3.910374     -0.611213      0.042285
   14   H     14    1.4430  1.100     -4.171162     -1.679172      0.044949
   15   H     15    1.4430  1.100     -4.198788     -0.122433      0.978195
   16   H     16    1.4430  1.100     -4.321468     -0.097102     -0.832218
 ------------------------------------------------------------------------------
 Do NDO integrals.
 One-electron integrals computed using PRISM.
 NBasis=    46 RedAO= F EigKep=  0.00D+00  NBF=    46
 NBsUse=    46 1.00D-04 EigRej=  0.00D+00 NBFU=    46
 Initial guess from the checkpoint file:  "dmad_cycloaddition_PM6_toluene_water.chk"
 B after Tr=     0.000000    0.000000    0.000000
         Rot=    1.000000   -0.000009   -0.000033    0.000091 Ang=  -0.01 deg.
 Overlap will be assumed to be unity.
 Keep J ints in memory in canonical form, NReq=5787777.
 Requested convergence on RMS density matrix=1.00D-08 within 128 cycles.
 Requested convergence on MAX density matrix=1.00D-06.
 Requested convergence on             energy=1.00D-06.
 No special actions if energy rises.
 Inv3:  Mode=1 IEnd=     7546188.
 Iteration    1 A*A^-1 deviation from unit magnitude is 6.22D-15 for   1556.
 Iteration    1 A*A^-1 deviation from orthogonality  is 1.71D-15 for   1441    270.
 Iteration    1 A^-1*A deviation from unit magnitude is 6.00D-15 for   1556.
 Iteration    1 A^-1*A deviation from orthogonality  is 1.49D-15 for   1055    481.
 Error on total polarization charges = -0.00054
 SCF Done:  E(RPM6D3) = -0.188486152243     A.U. after   12 cycles
            NFock= 11  Conv=0.63D-08     -V/T= 0.9941
 D1PCM: C-PCM CHGder 1st derivatives, ID1Alg=3 FixD1E=F DoIter=F DoCFld=F I1PDM=0.
 Calling FoFJK, ICntrl=      2127 FMM=F ISym2X=0 I1Cent= 0 IOpClX= 0 NMat=1 NMatS=1 NMatT=0.
 ***** Axes restored to original set *****
 -------------------------------------------------------------------
 Center     Atomic                   Forces (Hartrees/Bohr)
 Number     Number              X              Y              Z
 -------------------------------------------------------------------
      1        7           0.000248598    0.000157040    0.000075498
      2        7          -0.000251438   -0.000163710   -0.000073303
      3        6           0.000089197    0.000872378   -0.000367534
      4        6          -0.000087482   -0.000868034    0.000363667
      5        8          -0.000271864    0.000675340   -0.000153924
      6        8           0.000269374   -0.000673985    0.000154690
[...]
 ! A11   A(8,9,10)             101.5526         -DE/DX =    0.0                 !
 ! A12   A(8,9,11)             109.5698         -DE/DX =    0.0                 !
 ! A13   A(8,9,12)             109.8947         -DE/DX =    0.0                 !
 ! A14   A(10,9,11)            111.6928         -DE/DX =    0.0                 !
 ! A15   A(10,9,12)            111.6916         -DE/DX =    0.0                 !
 ! A16   A(11,9,12)            111.9434         -DE/DX =    0.0                 !
 ! A17   A(7,13,14)            101.5526         -DE/DX =    0.0                 !
 ! A18   A(7,13,15)            109.8947         -DE/DX =    0.0                 !
 ! A19   A(7,13,16)            109.5698         -DE/DX =    0.0                 !
 ! A20   A(14,13,15)           111.6917         -DE/DX =    0.0                 !
 ! A21   A(14,13,16)           111.6928         -DE/DX =    0.0                 !
 ! A22   A(15,13,16)           111.9434         -DE/DX =    0.0                 !
 ! D1    D(3,1,2,4)           -179.9997         -DE/DX =    0.0                 !
 ! D2    D(2,1,3,6)           -113.2369         -DE/DX =    0.0                 !
 ! D3    D(2,1,3,8)             73.7173         -DE/DX =    0.0                 !
 ! D4    D(1,2,4,5)            113.2367         -DE/DX =    0.0                 !
 ! D5    D(1,2,4,7)            -73.7167         -DE/DX =    0.0                 !
 ! D6    D(1,3,8,9)            169.9833         -DE/DX =    0.0                 !
 ! D7    D(6,3,8,9)             -2.5831         -DE/DX =    0.0                 !
 ! D8    D(2,4,7,13)          -169.9837         -DE/DX =    0.0                 !
 ! D9    D(5,4,7,13)             2.5835         -DE/DX =    0.0                 !
 ! D10   D(4,7,13,14)         -177.8759         -DE/DX =    0.0                 !
 ! D11   D(4,7,13,15)          -59.5054         -DE/DX =    0.0                 !
 ! D12   D(4,7,13,16)           63.8904         -DE/DX =    0.0                 !
 ! D13   D(3,8,9,10)           177.8759         -DE/DX =    0.0                 !
 ! D14   D(3,8,9,11)           -63.8905         -DE/DX =    0.0                 !
 ! D15   D(3,8,9,12)            59.5054         -DE/DX =    0.0                 !
 --------------------------------------------------------------------------------
 GradGradGradGradGradGradGradGradGradGradGradGradGradGradGradGradGradGrad

 1\1\GINC-D12S4B2\Freq\RPM6\ZDO\C4H6N2O4\CHMKSH\08-Sep-2020\0\\#N Geom=
 AllCheck Guess=TCheck SCRF=Check GenChk RPM6/ZDO Freq\\Title Card Requ
 ired\\0,1\N,-0.3797326541,0.2642320638,0.4056074476\N,0.3797376096,-0.
 2642419214,-0.4055763608\C,-1.7869491003,0.5206875421,0.0538549567\C,1
 .7869521115,-0.5207042852,-0.0538213831\O,2.2376106827,-1.6303389835,0
 .0673174164\O,-2.237611671,1.6303204835,-0.0672843382\O,2.4547144952,0
 .6579550291,-0.0578276516\O,-2.4547099093,-0.657972658,0.0578804687\C,
 -3.9142822755,-0.5934986948,-0.0456752153\H,-4.1813142746,-1.659539045
 1,-0.0588038234\H,-4.3221051683,-0.0850731708,0.8336287096\H,-4.199910
 8512,-0.0934151601,-0.9764273599\C,3.9142855947,0.5934774359,0.0457428
 981\H,4.1813191045,1.6595172286,0.058884955\H,4.1999034174,0.093384122
 3,0.9764930952\H,4.3221168887,0.0850600136,-0.8335618149\\Version=ES64
 L-G09RevD.01\State=1-A\HF=-0.1884884\RMSD=4.763e-10\RMSF=1.125e-05\Zer
 oPoint=0.1019043\Thermal=0.1136935\Dipole=0.0000054,-0.0000048,0.00001
 09\DipoleDeriv=-0.7435426,0.0817372,-0.0790926,0.0815731,-0.4187135,0.
 0457827,0.0768755,0.0441246,-0.1039593,-0.7435464,0.0817339,-0.0790933
 ,0.0815774,-0.4187157,0.0457805,0.0768916,0.04412,-0.1039605,2.7428759
 ,-0.1523091,0.1761152,0.0590833,3.2153273,-0.1921346,-0.1136113,-0.168
 198,0.6730719,2.7428744,-0.1523054,0.1761218,0.0590882,3.2153311,-0.19
 21113,-0.1135949,-0.16818,0.673072,-1.1750975,0.4809761,-0.0702674,0.3
 921339,-1.7816396,0.1394628,-0.0000666,0.1235052,-0.5058266,-1.1751014
 ,0.4809796,-0.0702698,0.392138,-1.7816376,0.1394731,-0.0000614,0.12350
 51,-0.5058278,-1.6892636,-0.4610897,-0.0521238,-0.3636655,-1.2160443,0
 .0098297,-0.0313865,-0.0070672,-0.412681,-1.6892653,-0.4610909,-0.0521
 118,-0.3636656,-1.2160449,0.0098388,-0.0313698,-0.0070537,-0.4126804,0
 .5787634,0.0483429,0.0499574,-0.2330019,-0.534383,-0.0047271,0.0984095
 ,0.0085324,-0.3423711,0.0158956,0.0342935,-0.0087747,0.1407504,0.34243
 16,0.0038413,-0.0152102,0.0010606,0.214121,0.1407039,-0.0177534,-0.082
 8835,-0.040935,0.1968097,0.0195023,-0.1019796,0.0123389,0.2299045,0.12
 97224,-0.0142001,0.0670593,-0.0359285,0.1962305,-0.0215648,0.0869267,-
 0.0142977,0.2477367,0.5787601,0.0483405,0.0499664,-0.2330044,-0.534383
 1,-0.0047303,0.0984162,0.008531,-0.3423702,0.0158964,0.0342941,-0.0087
 761,0.1407508,0.3424314,0.0038437,-0.015211,0.0010622,0.2141209,0.1297
 201,-0.0142005,0.0670576,-0.0359295,0.196231,-0.0215659,0.0869252,-0.0
 142987,0.2477377,0.1407062,-0.0177525,-0.0828848,-0.0409338,0.1968095,
 0.0195018,-0.1019807,0.0123384,0.2299032\Polar=141.3064296,-15.9865293
 ,97.2590121,2.5669646,-0.9778713,29.1222524\HyperPolar=-0.0061975,-0.0
 000819,0.000119,0.0004824,-0.001557,-0.0021133,-0.0014432,0.0003504,0.
 0000626,0.0004514\PG=C01 [X(C4H6N2O4)]\NImag=0\\0.69308386,-0.28086001
 ,0.22949482,-0.27283824,0.24217479,0.45657600,-0.35513881,0.22693088,0
 .31841181,0.69308357,0.22693072,-0.14070528,-0.25561634,-0.28086070,0.
 22949509,0.31841189,-0.25561631,-0.41381921,-0.27283729,0.24217474,0.4
 5657609,-0.17428904,0.02181984,-0.04091882,-0.05497824,0.01414998,0.01
 536220,0.52307789,0.01145639,-0.03421314,0.00265359,0.02449981,-0.0223
 7137,0.00433403,-0.15419656,0.87508846,-0.06322569,0.00136961,-0.08282
 866,0.03693007,0.00584317,0.01677574,0.05603165,-0.05835006,0.17518202
 ,-0.05497821,0.01414995,0.01536235,-0.17428891,0.02182044,-0.04091924,
 -0.01666336,0.01065245,-0.00273832,0.52307627,0.02450004,-0.02237144,0
 .00433393,0.01145708,-0.03421325,0.00265409,0.01065232,0.01073919,-0.0
 0864752,-0.15419532,0.87508995,0.03693004,0.00584321,0.01677557,-0.063
 22589,0.00136987,-0.08282857,-0.00273835,-0.00864751,-0.00576854,0.056
 03404,-0.05834707,0.17518221,-0.00457789,0.00795001,-0.00409769,-0.040
 82954,0.03999471,-0.00862294,0.00493012,-0.00621511,0.00240475,-0.1357
 9246,0.23445909,-0.02602035,0.16856335,0.00066175,-0.00491436,0.001823
 47,0.04845104,-0.02491061,0.01083465,-0.00459312,0.00421741,-0.0008011
 8,0.24111874,-0.60760947,0.06136346,-0.27261161,0.75276952,-0.00425316
 ,-0.00136987,-0.00329671,-0.00793570,0.01132984,0.01610958,0.00071312,
 0.00043123,0.00126704,-0.02555483,0.05921386,-0.06217634,0.03653373,-0
 .07918403,0.03224770,-0.04083003,0.03999471,-0.00862306,-0.00457791,0.
 00795003,-0.00409759,-0.13579419,0.23446092,-0.02602069,0.00493010,-0.
 00621511,0.00240478,-0.00177913,0.00175749,-0.00046103,0.16856551,0.04
 845113,-0.02491019,0.01083482,0.00066174,-0.00491437,0.00182331,0.2411
 2059,-0.60760795,0.06136326,-0.00459310,0.00421739,-0.00080119,0.00175
 748,-0.00177783,0.00030835,-0.27261382,0.75276764,-0.00793568,0.011329
 77,0.01610966,-0.00425313,-0.00136989,-0.00329673,-0.02555539,0.059214
 08,-0.06217627,0.00071308,0.00043125,0.00126705,-0.00046102,0.00030834
 ,-0.00022926,0.03653409,-0.07918517,0.03224770,-0.00658636,-0.00565826
 ,0.00366170,-0.05930683,-0.02437485,-0.01072956,0.00863155,0.00078169,
 -0.00197077,-0.09964348,-0.08145215,-0.00023466,0.01346770,-0.02349581
 ,0.00161474,-0.00424507,0.00307188,-0.00015225,0.43368148,0.00196460,0
 .00232906,0.00015320,-0.02704190,0.00110240,-0.00728143,-0.00093051,-0
 .00118240,0.00074723,-0.08884581,-0.22660753,0.00247636,-0.00445273,-0
 .11461199,0.00916051,0.00090092,-0.00060949,-0.00002159,0.09289235,0.3
 9747017,0.00001621,-0.00067120,-0.00112930,-0.00768839,-0.00321908,0.0
 0641282,0.00021368,0.00026673,0.00012050,-0.00042341,0.00300317,-0.037
 22761,0.00031027,0.00516598,0.01717117,-0.00022697,0.00011439,-0.00004
 408,0.02630439,-0.00794916,0.04981854,-0.05930665,-0.02437511,-0.01072
 894,-0.00658642,-0.00565827,0.00366177,-0.09964334,-0.08145184,-0.0002
 3303,0.00863161,0.00078170,-0.00197073,-0.00424508,0.00307190,-0.00015
 228,0.01346780,-0.02349552,0.00161491,-0.00273836,0.00009646,-0.000063
 10,0.43368137,-0.02704219,0.00110220,-0.00728133,0.00196462,0.00232907
 ,0.00015323,-0.08884553,-0.22660753,0.00247955,-0.00093051,-0.00118240
 ,0.00074722,0.00090092,-0.00060949,-0.00002159,-0.00445238,-0.11461202
 ,0.00916146,0.00009645,0.00002432,0.00001597,0.09289253,0.39747020,-0.
 00768765,-0.00321888,0.00641303,0.00001623,-0.00067116,-0.00112933,-0.
 00042185,0.00300599,-0.03722767,0.00021362,0.00026672,0.00012052,-0.00
 022694,0.00011437,-0.00004408,0.00031032,0.00516731,0.01717104,-0.0000
 6307,0.00001597,0.00000559,0.02629967,-0.00795346,0.04981810,0.0024145
 3,0.00066323,-0.00037679,0.00056489,0.00071839,-0.00009807,-0.04134736
 ,-0.04553702,0.00010609,-0.00154121,0.00016857,0.00022563,0.00070094,-
 0.00057085,0.00003864,-0.00181154,0.00492771,-0.00067910,0.00054513,-0
 .00007909,0.00001577,-0.19086543,0.03583202,-0.01250547,0.36443755,-0.
 00478771,-0.00384128,-0.00025709,-0.00198664,-0.00215588,0.00128104,-0
 .03771947,-0.00033212,-0.00328082,0.00265987,0.00066413,-0.00071479,-0
 .00138741,0.00089197,-0.00002246,-0.00200153,-0.00391673,0.00016653,-0
 .00079715,-0.00003895,-0.00002151,0.04587571,-0.05445666,0.00379063,-0
 .00826595,0.41714777,0.00205431,0.00103513,0.00665859,-0.00151090,-0.0
 0077108,-0.00142112,-0.00149287,-0.00390831,-0.00656033,-0.00021527,0.
 00058772,0.00033509,-0.00006391,-0.00003492,-0.00009981,0.00012105,0.0
 0035622,-0.00060871,0.00019828,-0.00003220,-0.00001332,-0.01232119,0.0
 0349461,-0.03619362,-0.00175487,-0.00150864,0.39390375,-0.00115311,-0.
 00114549,0.00001761,-0.00051701,-0.00070048,0.00032671,-0.00752581,0.0
 0266895,-0.00096960,0.00083009,0.00014058,-0.00022902,-0.00042392,0.00
 031045,-0.00000556,0.00095613,0.00000499,0.00011179,-0.00023136,0.0000
 0639,-0.00000507,-0.02528669,-0.03405660,-0.00151807,-0.03939136,-0.03
 406550,-0.00032664,0.06276329,0.00044562,0.00051371,0.00013821,0.00035
 587,0.00015907,-0.00033847,-0.00132878,-0.00415518,0.00029737,-0.00073
 663,0.00006148,0.00012515,0.00032104,-0.00024024,0.00000952,-0.0000003
 8,0.00147914,-0.00016810,0.00026492,-0.00001941,0.00000657,-0.01508964
 ,-0.00334593,-0.00110674,-0.04203554,-0.20652810,-0.00205495,0.0590115
 5,0.24320589,-0.00002227,-0.00011418,0.00006814,-0.00006340,-0.0000124
 3,0.00002352,-0.00051130,0.00023467,0.00016045,0.00006194,0.00000992,-
 0.00000799,-0.00002985,0.00002166,-0.00000049,0.00007123,-0.00000877,-
 0.00000831,-0.00001585,0.00000186,-0.00000386,-0.00191203,-0.00228752,
 0.00284950,-0.00021067,-0.00154880,-0.03322080,0.00180173,0.00304552,0
 .03198868,0.00008944,0.00010013,-0.00102713,0.00049184,0.00016860,0.00
 006308,-0.00279033,0.00134434,0.00339271,-0.00025204,-0.00009495,-0.00
 001652,0.00015177,-0.00009120,0.00001903,0.00023806,0.00064283,-0.0000
 3623,0.00007584,-0.00000278,0.00000445,-0.03581290,0.01207159,0.020124
 53,-0.05263677,0.02609840,0.04705091,0.00506924,-0.00013597,-0.0012039
 0,0.08005919,-0.00007783,-0.00023188,-0.00027475,0.00000760,-0.0000132
 5,0.00013064,-0.00116043,0.00285000,0.00082021,0.00014828,-0.00003094,
 -0.00004129,-0.00005337,0.00004491,0.00000206,0.00065499,-0.00043981,-
 0.00017749,-0.00004519,-0.00000015,-0.00000004,0.00423021,-0.00001944,
 -0.00159469,0.03200278,-0.07435663,-0.06990848,0.00523802,-0.01571458,
 -0.01883375,-0.03904365,0.08156027,-0.00029923,-0.00031303,-0.00027391
 ,-0.00018925,0.00000852,0.00025208,0.00257872,0.00304137,0.00052635,0.
 00048516,-0.00011208,-0.00006941,-0.00020030,0.00016257,-0.00000678,-0
 .00017542,-0.00062858,-0.00010468,-0.00018652,0.00001939,-0.00000763,0
 .00436732,-0.00312057,0.00120803,0.05543035,-0.06962077,-0.15480022,0.
 00060106,-0.00659420,-0.00090334,-0.06738820,0.08376611,0.17765332,0.0
 0079454,0.00028610,0.00120581,-0.00006178,-0.00004373,-0.00034096,-0.0
 0241344,0.00122076,-0.00376543,-0.00023127,0.00010221,0.00007975,0.000
 09219,-0.00007882,-0.00000670,0.00035893,0.00049451,0.00005287,0.00011
 314,-0.00000850,0.00000278,-0.03179948,0.01165273,-0.02455901,-0.04098
 907,0.01621343,-0.03172022,0.00485987,-0.00102744,0.00203091,0.0053332
 8,-0.00190873,0.00494624,0.06396076,0.00009132,-0.00020421,0.00020014,
 -0.00011109,-0.00003829,0.00004359,-0.00118409,0.00287066,-0.00119326,
 0.00014277,0.00000823,-0.00001604,-0.00006104,0.00004545,-0.00000318,0
 .00074470,-0.00041859,0.00032489,-0.00003338,-0.00000088,-0.00000075,0
 .00373369,-0.00003075,0.00219954,0.02203981,-0.07290892,0.07269257,0.0
 0263365,-0.01548041,0.01949521,-0.00107392,0.00635936,-0.00656422,-0.0
 2692920,0.07980299,0.00036192,0.00028323,0.00010994,0.00025078,0.00004
 293,-0.00021685,-0.00306168,-0.00287155,0.00020194,-0.00052998,0.00010
 658,0.00007342,0.00023007,-0.00018286,0.00001069,0.00022639,0.00069202
 ,-0.00023339,0.00020629,-0.00002071,0.00000291,-0.00876456,0.00464520,
 -0.00297112,-0.04016019,0.07167416,-0.16796156,0.00017481,0.00665550,-
 0.00094912,-0.00098087,0.00610717,-0.02348625,0.05208130,-0.08718050,0
 .19542640,0.00056489,0.00071840,-0.00009804,0.00241451,0.00066320,-0.0
 0037686,-0.00154119,0.00016856,0.00022564,-0.04134752,-0.04553693,0.00
 010526,-0.00181154,0.00492771,-0.00067909,0.00070094,-0.00057085,0.000
 03863,-0.19086522,0.03583234,-0.01250670,0.00054513,-0.00007909,0.0000
 1577,-0.00009330,0.00017120,-0.00003030,0.00005281,-0.00005041,0.00000
 386,-0.00001728,0.00000878,0.00003524,-0.00002119,0.00000761,-0.000039
 62,0.36443778,-0.00198659,-0.00215586,0.00128104,-0.00478782,-0.003841
 29,-0.00025725,0.00265986,0.00066412,-0.00071480,-0.03771933,-0.000331
 89,-0.00328110,-0.00200155,-0.00391674,0.00016649,-0.00138741,0.000891
 97,-0.00002245,0.04587603,-0.05445690,0.00379083,-0.00079715,-0.000038
 95,-0.00002150,0.00017120,-0.00023019,0.00006114,-0.00006166,0.0000808
 4,-0.00000439,0.00002209,-0.00001137,-0.00005496,0.00003315,-0.0000076
 4,0.00006055,-0.00826579,0.41714786,-0.00151093,-0.00077111,-0.0014210
 9,0.00205429,0.00103508,0.00665860,-0.00021525,0.00058773,0.00033508,-
 0.00149368,-0.00390873,-0.00656038,0.00012102,0.00035626,-0.00060871,-
 0.00006392,-0.00003491,-0.00009980,-0.01232236,0.00349473,-0.03619390,
 0.00019827,-0.00003220,-0.00001332,-0.00003030,0.00006114,-0.00002402,
 0.00002028,-0.00001553,0.00000235,-0.00000295,0.00000494,0.00001183,-0
 .00000613,0.00000195,-0.00000756,-0.00175526,-0.00150843,0.39390377,-0
 .00051700,-0.00070047,0.00032671,-0.00115314,-0.00114549,0.00001759,0.
 00083008,0.00014058,-0.00022902,-0.00752578,0.00266896,-0.00096964,0.0
 0095613,0.00000499,0.00011180,-0.00042392,0.00031045,-0.00000556,-0.02
 528676,-0.03405654,-0.00151875,-0.00023136,0.00000639,-0.00000507,0.00
 005281,-0.00006166,0.00002028,-0.00001836,0.00002313,-0.00000160,0.000
 00630,-0.00000462,-0.00001707,0.00000988,-0.00000359,0.00001843,-0.039
 39147,-0.03406575,-0.00032704,0.06276346,0.00035586,0.00015908,-0.0003
 3846,0.00044563,0.00051371,0.00013821,-0.00073663,0.00006148,0.0001251
 5,-0.00132878,-0.00415519,0.00029731,-0.00000038,0.00147915,-0.0001680
 9,0.00032104,-0.00024024,0.00000951,-0.01508959,-0.00334582,-0.0011069
 6,0.00026492,-0.00001941,0.00000657,-0.00005041,0.00008084,-0.00001553
 ,0.00002313,-0.00002423,0.00000172,-0.00000765,0.00000433,0.00001634,-
 0.00000969,0.00000354,-0.00001797,-0.04203579,-0.20652795,-0.00205713,
 0.05901181,0.24320565,-0.00006340,-0.00001244,0.00002352,-0.00002228,-
 0.00011419,0.00006814,0.00006194,0.00000993,-0.00000800,-0.00051140,0.
 00023466,0.00016044,0.00007124,-0.00000876,-0.00000831,-0.00002985,0.0
 0002166,-0.00000049,-0.00191248,-0.00228794,0.00284943,-0.00001585,0.0
 0000186,-0.00000386,0.00000386,-0.00000439,0.00000235,-0.00000160,0.00
 000172,0.00000043,0.00000090,-0.00000052,-0.00000095,0.00000023,-0.000
 00022,0.00000157,-0.00021117,-0.00155090,-0.03322086,0.00180267,0.0030
 4826,0.03198880,-0.00006179,-0.00004373,-0.00034095,0.00079454,0.00028
 609,0.00120581,-0.00023126,0.00010221,0.00007975,-0.00241335,0.0012208
 3,-0.00376544,0.00035894,0.00049451,0.00005287,0.00009219,-0.00007881,
 -0.00000670,-0.03179909,0.01165298,-0.02455920,0.00011314,-0.00000850,
 0.00000278,-0.00002119,0.00003315,-0.00000613,0.00000988,-0.00000969,0
 .00000023,-0.00000248,0.00000189,0.00000612,-0.00000406,0.00000139,-0.
 00000750,-0.04098827,0.01621293,-0.03171859,0.00485985,-0.00102757,0.0
 0203100,0.06395956,-0.00011110,-0.00003829,0.00004360,0.00009131,-0.00
 020421,0.00020013,0.00014278,0.00000823,-0.00001604,-0.00118402,0.0028
 7070,-0.00119323,0.00074469,-0.00041858,0.00032489,-0.00006104,0.00004
 545,-0.00000318,0.00373382,-0.00003084,0.00219965,-0.00003338,-0.00000
 088,-0.00000075,0.00000761,-0.00000764,0.00000195,-0.00000359,0.000003
 54,-0.00000022,0.00000109,-0.00000039,-0.00000251,0.00000139,-0.000000
 25,0.00000280,0.02203937,-0.07291042,0.07269380,0.00263340,-0.01548068
 ,0.01949509,-0.02692877,0.07980480,0.00025078,0.00004293,-0.00021685,0
 .00036194,0.00028323,0.00010995,-0.00052998,0.00010659,0.00007342,-0.0
 0306175,-0.00287150,0.00020179,0.00022641,0.00069200,-0.00023338,0.000
 23007,-0.00018286,0.00001069,-0.00876482,0.00464537,-0.00297140,0.0002
 0629,-0.00002071,0.00000291,-0.00003962,0.00006055,-0.00000756,0.00001
 843,-0.00001797,0.00000157,-0.00000554,0.00000312,0.00001247,-0.000007
 50,0.00000280,-0.00001376,-0.04015849,0.07167536,-0.16796089,0.0001749
 1,0.00665534,-0.00094884,0.05207948,-0.08718202,0.19542580,0.00049185,
 0.00016860,0.00006308,0.00008945,0.00010014,-0.00102712,-0.00025205,-0
 .00009495,-0.00001652,-0.00279043,0.00134425,0.00339268,0.00023807,0.0
 0064283,-0.00003623,0.00015178,-0.00009120,0.00001902,-0.03581314,0.01
 207151,0.02012427,0.00007585,-0.00000278,0.00000445,-0.00001728,0.0000
 2209,-0.00000295,0.00000630,-0.00000765,0.00000090,-0.00000342,0.00000
 112,0.00000569,-0.00000248,0.00000109,-0.00000554,-0.05263775,0.026098
 61,0.04705213,0.00506925,-0.00013593,-0.00120388,0.00533323,-0.0010738
 4,-0.00098056,0.08006051,0.00000760,-0.00001325,0.00013063,-0.00007783
 ,-0.00023188,-0.00027474,0.00014827,-0.00003094,-0.00004129,-0.0011604
 9,0.00284996,0.00082020,0.00065500,-0.00043981,-0.00017749,-0.00005337
 ,0.00004491,0.00000206,0.00423025,-0.00001942,-0.00159470,-0.00004519,
 -0.00000015,-0.00000004,0.00000878,-0.00001136,0.00000494,-0.00000462,
 0.00000433,-0.00000052,0.00000112,-0.00000057,-0.00000313,0.00000189,-
 0.00000039,0.00000312,0.03200293,-0.07435534,-0.06990742,0.00523818,-0
 .01571434,-0.01883384,-0.00190885,0.00635937,0.00610745,-0.03904384,0.
 08155874,-0.00018924,0.00000852,0.00025208,-0.00029923,-0.00031303,-0.
 00027393,0.00048515,-0.00011208,-0.00006942,0.00257865,0.00304139,0.00
 052644,-0.00017540,-0.00062858,-0.00010469,-0.00020030,0.00016257,-0.0
 0000678,0.00436697,-0.00312046,0.00120823,-0.00018652,0.00001939,-0.00
 000763,0.00003524,-0.00005496,0.00001183,-0.00001707,0.00001633,-0.000
 00095,0.00000569,-0.00000314,-0.00001111,0.00000612,-0.00000251,0.0000
 1247,0.05543162,-0.06961979,-0.15480053,0.00060116,-0.00659435,-0.0009
 0361,0.00494652,-0.00656394,-0.02348621,-0.06738947,0.08376487,0.17765
 358\\-0.00000260,-0.00000912,-0.00000382,0.00000276,0.00000968,0.00000
 412,0.00001989,-0.00000794,0.00001787,-0.00001993,0.00000756,-0.000019
 04,0.00000614,-0.00000757,-0.00003102,-0.00000596,0.00000731,0.0000315
 4,0.00000586,-0.00000304,0.00000569,-0.00000606,0.00000322,-0.00000539
 ,0.00000674,-0.00000101,0.00000079,-0.00000174,-0.00000061,-0.00001623
 ,0.00000047,-0.00001215,0.00001060,-0.00000407,0.00001742,0.00000941,-
 0.00000677,0.00000091,-0.00000073,0.00000169,0.00000060,0.00001623,0.0
 0000408,-0.00001742,-0.00000941,-0.00000049,0.00001214,-0.00001061\\\@


 IT IS NOT EASY TO DESCRIBE
     THE SEA WITH THE MOUTH

                   -- KOKYU
 Job cpu time:       0 days  0 hours  0 minutes 11.9 seconds.
 File lengths (MBytes):  RWF=     40 Int=      0 D2E=      0 Chk=      7 Scr=      1
 Normal termination of Gaussian 09 at Tue Sep  8 22:41:38 2020.
