 Entering Gaussian System, Link 0=g09
 Input=freq_TS_associated_cycloaddition_PM6_toluene_3_water.com
 Output=freq_TS_associated_cycloaddition_PM6_toluene_3_water.log
 Initial command:
 /apps/applications/gaussian/G09.D01/2/default/g09/l1.exe "/local/730537.1.40core-192G.q/Gau-191936.inp" -scrdir="/local/730537.1.40core-192G.q/"
 Entering Link 1 = /apps/applications/gaussian/G09.D01/2/default/g09/l1.exe PID=    191937.
  
 Copyright (c) 1988,1990,1992,1993,1995,1998,2003,2009,2013,
            Gaussian, Inc.  All Rights Reserved.
  
 This is part of the Gaussian(R) 09 program.  It is based on
 the Gaussian(R) 03 system (copyright 2003, Gaussian, Inc.),
 the Gaussian(R) 98 system (copyright 1998, Gaussian, Inc.),
 the Gaussian(R) 94 system (copyright 1995, Gaussian, Inc.),
 the Gaussian 92(TM) system (copyright 1992, Gaussian, Inc.),
 the Gaussian 90(TM) system (copyright 1990, Gaussian, Inc.),
 the Gaussian 88(TM) system (copyright 1988, Gaussian, Inc.),
 the Gaussian 86(TM) system (copyright 1986, Carnegie Mellon
 University), and the Gaussian 82(TM) system (copyright 1983,
 Carnegie Mellon University). Gaussian is a federally registered
 trademark of Gaussian, Inc.
  
 This software contains proprietary and confidential information,
 including trade secrets, belonging to Gaussian, Inc.
  
 This software is provided under written license and may be
 used, copied, transmitted, or stored only in accord with that
 written license.
  
 The following legend is applicable only to US Government
 contracts under FAR:
  
                    RESTRICTED RIGHTS LEGEND
  
 Use, reproduction and disclosure by the US Government is
 subject to restrictions as set forth in subparagraphs (a)
 and (c) of the Commercial Computer Software - Restricted
 Rights clause in FAR 52.227-19.
  
 Gaussian, Inc.
 340 Quinnipiac St., Bldg. 40, Wallingford CT 06492
  
  
 ---------------------------------------------------------------
 Warning -- This program may not be used in any manner that
 competes with the business of Gaussian, Inc. or will provide
 assistance to any competitor of Gaussian, Inc.  The licensee
 of this program is prohibited from giving any competitor of
 Gaussian, Inc. access to this program.  By using this program,
 the user acknowledges that Gaussian, Inc. is engaged in the
 business of creating and licensing software in the field of
 computational chemistry and represents and warrants to the
 licensee that it is not a competitor of Gaussian, Inc. and that
 it will not use this program in any manner prohibited above.
 ---------------------------------------------------------------
  

 Cite this work as:
 Gaussian 09, Revision D.01,
 M. J. Frisch, G. W. Trucks, H. B. Schlegel, G. E. Scuseria, 
 M. A. Robb, J. R. Cheeseman, G. Scalmani, V. Barone, B. Mennucci, 
 G. A. Petersson, H. Nakatsuji, M. Caricato, X. Li, H. P. Hratchian, 
 A. F. Izmaylov, J. Bloino, G. Zheng, J. L. Sonnenberg, M. Hada, 
 M. Ehara, K. Toyota, R. Fukuda, J. Hasegawa, M. Ishida, T. Nakajima, 
 Y. Honda, O. Kitao, H. Nakai, T. Vreven, J. A. Montgomery, Jr., 
 J. E. Peralta, F. Ogliaro, M. Bearpark, J. J. Heyd, E. Brothers, 
 K. N. Kudin, V. N. Staroverov, T. Keith, R. Kobayashi, J. Normand, 
 K. Raghavachari, A. Rendell, J. C. Burant, S. S. Iyengar, J. Tomasi, 
 M. Cossi, N. Rega, J. M. Millam, M. Klene, J. E. Knox, J. B. Cross, 
 V. Bakken, C. Adamo, J. Jaramillo, R. Gomperts, R. E. Stratmann, 
 O. Yazyev, A. J. Austin, R. Cammi, C. Pomelli, J. W. Ochterski, 
 R. L. Martin, K. Morokuma, V. G. Zakrzewski, G. A. Voth, 
 P. Salvador, J. J. Dannenberg, S. Dapprich, A. D. Daniels, 
 O. Farkas, J. B. Foresman, J. V. Ortiz, J. Cioslowski, 
 and D. J. Fox, Gaussian, Inc., Wallingford CT, 2013.
 
 ******************************************
 Gaussian 09:  ES64L-G09RevD.01 24-Apr-2013
                 9-Sep-2020 
 ******************************************
 %nprocshared=4
 Will use up to    4 processors via shared memory.
 %chk=freq_TS_associated_cycloaddition_PM6_toluene_3_water.chk
 ----------------------------------------------------------------------
 # freq pm6 scrf=(cpcm,solvent=water) geom=connectivity empiricaldisper
 sion=gd3
 ----------------------------------------------------------------------
 1/10=4,30=1,38=1,57=2/1,3;
 2/12=2,17=6,18=5,40=1/2;
 3/5=2,16=1,25=1,41=3900000,70=2101,71=2,72=1,124=31,140=1/1,2,3;
 4/35=1/1;
 5/5=2,35=1,38=5,53=1,98=1/2;
 8/6=4,10=90,11=11/1;
 11/6=1,8=1,9=11,15=111,16=1/1,2,10;
 10/6=1/2;
 6/7=2,8=2,9=2,10=2,18=1,28=1/1;
 7/8=1,10=1,25=1/1,2,3,16;
 1/10=4,30=1/3;
 99//99;
 -------------------
 Title Card Required
 -------------------
 Symbolic Z-matrix:
 Charge =  0 Multiplicity = 1
 C                     0.48077   0.8886   -0.73662 
 C                     0.89418   1.65562   0.61302 
 C                    -1.41854   2.00151   0.37682 
 C                    -0.99579   1.29551  -0.92416 
 H                     1.11274   0.63911  -1.59248 
 H                    -1.64847   0.78632  -1.60992 
 C                    -0.37796   1.73682   1.47013 
 H                    -0.31713   2.56276   2.20179 
 H                    -0.57961   0.82041   2.04891 
 C                     0.7535    2.59679  -0.51616 
 H                     1.53277   3.13507  -1.02745 
 C                    -0.73918   2.80596  -0.75023 
 H                    -1.14861   3.64428  -1.28 
 H                     1.84781   1.41843   1.08753 
 H                    -2.4555    2.14177   0.6535 
 N                    -0.27087  -1.25478   0.70379 
 N                     0.46566  -0.92923  -0.29882 
 C                    -1.69946  -1.22338   0.58502 
 C                     1.86595  -1.36114  -0.12641 
 O                     2.21596  -2.50854  -0.28511 
 O                    -2.43792  -1.09144   1.53783 
 O                     2.69436  -0.30028   0.0523 
 O                    -2.13719  -1.48102  -0.68826 
 C                    -3.57515  -1.54949  -0.90676 
 H                    -3.63899  -1.7527   -1.9833 
 H                    -4.00156  -2.36622  -0.31727 
 H                    -4.03259  -0.58818  -0.65316 
 C                     4.13235  -0.56672   0.02218 
 H                     4.39524  -1.27159   0.81651 
 H                     4.41561  -0.94363  -0.9652 
 H                     4.54905   0.43185   0.2107 
 

 GradGradGradGradGradGradGradGradGradGradGradGradGradGradGradGradGradGrad
 Berny optimization.
 Initialization pass.
 Trust Radius=3.00D-01 FncErr=1.00D-07 GrdErr=1.00D-07
 Number of steps in this run=      2 maximum allowed number of steps=      2.
 GradGradGradGradGradGradGradGradGradGradGradGradGradGradGradGradGradGrad

                          Input orientation:                          
 ---------------------------------------------------------------------
 Center     Atomic      Atomic             Coordinates (Angstroms)
 Number     Number       Type             X           Y           Z
 ---------------------------------------------------------------------
      1          6           0        0.480766    0.888604   -0.736624
      2          6           0        0.894179    1.655624    0.613024
      3          6           0       -1.418539    2.001512    0.376816
      4          6           0       -0.995794    1.295510   -0.924162
      5          1           0        1.112737    0.639106   -1.592481
      6          1           0       -1.648466    0.786323   -1.609924
      7          6           0       -0.377957    1.736815    1.470134
      8          1           0       -0.317130    2.562762    2.201785
      9          1           0       -0.579614    0.820409    2.048909
     10          6           0        0.753498    2.596792   -0.516158
     11          1           0        1.532767    3.135071   -1.027447
     12          6           0       -0.739183    2.805955   -0.750231
     13          1           0       -1.148613    3.644278   -1.279997
     14          1           0        1.847808    1.418425    1.087532
     15          1           0       -2.455504    2.141771    0.653495
     16          7           0       -0.270867   -1.254775    0.703792
     17          7           0        0.465663   -0.929230   -0.298820
     18          6           0       -1.699459   -1.223383    0.585021
     19          6           0        1.865948   -1.361136   -0.126411
     20          8           0        2.215963   -2.508536   -0.285113
     21          8           0       -2.437918   -1.091435    1.537833
     22          8           0        2.694364   -0.300277    0.052301
     23          8           0       -2.137190   -1.481021   -0.688262
     24          6           0       -3.575151   -1.549485   -0.906758
     25          1           0       -3.638985   -1.752701   -1.983298
     26          1           0       -4.001563   -2.366220   -0.317265
     27          1           0       -4.032593   -0.588181   -0.653158
     28          6           0        4.132347   -0.566722    0.022179
     29          1           0        4.395240   -1.271586    0.816505
     30          1           0        4.415610   -0.943629   -0.965198
     31          1           0        4.549053    0.431846    0.210698
 ---------------------------------------------------------------------
                    Distance matrix (angstroms):
                    1          2          3          4          5
     1  C    0.000000
     2  C    1.606481   0.000000
     3  C    2.466916   2.350340   0.000000
     4  C    1.543040   2.462645   1.539382   0.000000
     5  H    1.092762   2.438304   3.484485   2.307254   0.000000
     6  H    2.303637   3.487438   2.340232   1.074952   2.765180
     7  C    2.515283   1.536086   1.532390   2.511797   3.578651
     8  H    3.474722   2.194158   2.204227   3.440648   4.487920
     9  H    2.981317   2.220679   2.212396   3.039421   4.019533
    10  C    1.743816   1.476699   2.422706   2.218068   2.262755
    11  H    2.497578   2.299501   3.459352   3.128622   2.593363
    12  C    2.272597   2.418594   1.542364   1.541929   2.972243
    13  H    3.247132   3.422174   2.348738   2.380480   3.773912
    14  H    2.340312   1.091251   3.393248   3.485411   2.886198
    15  H    3.482031   3.385019   1.082368   2.309959   4.476020
    16  N    2.689577   3.136239   3.468064   3.111223   3.282379
    17  N    1.869872   2.774267   3.549077   2.734296   2.133528
    18  C    3.310682   3.875103   3.243796   3.019536   4.014826
    19  C    2.711534   3.254526   4.727419   3.985441   2.591844
    20  O    3.841267   4.460268   5.829947   5.019416   3.582453
    21  O    4.196716   4.416387   3.457371   3.720033   5.039920
    22  O    2.633601   2.716731   4.724353   4.137304   2.467649
    23  O    3.531452   4.552042   3.711992   3.011239   3.984291
    24  C    4.735365   5.705907   4.348346   3.840232   5.218854
    25  H    5.050053   6.237559   4.959298   4.171309   5.334074
    26  H    5.555269   6.403824   5.121606   4.776111   6.067473
    27  H    4.749555   5.559763   3.821078   3.583836   5.372428
    28  C    4.003473   3.971606   6.126494   5.537265   3.630316
    29  H    4.733047   4.568084   6.686294   6.219578   4.497642
    30  H    4.346530   4.652674   6.671743   5.856511   3.715845
    31  H    4.202024   3.875255   6.172811   5.725308   3.886217
                    6          7          8          9         10
     6  H    0.000000
     7  C    3.464735   0.000000
     8  H    4.411045   1.105080   0.000000
     9  H    3.811911   1.102473   1.768633   0.000000
    10  C    3.200555   2.442357   2.921407   3.392977   0.000000
    11  H    3.997016   3.441496   3.765315   4.391330   1.076300
    12  C    2.375875   2.490696   2.991934   3.435555   1.525331
    13  H    2.920036   3.434464   3.739498   4.402228   2.301891
    14  H    4.460914   2.280742   2.690357   2.678478   2.271098
    15  H    2.758916   2.268720   2.673402   2.685543   3.445697
    16  N    3.378926   3.090042   4.101184   2.492198   4.167994
    17  N    3.021863   3.308880   4.365753   3.108966   3.544420
    18  C    2.976458   3.360441   4.342770   2.752109   4.671545
    19  C    4.377613   4.145041   5.057994   3.933437   4.129727
    20  O    5.248336   5.275634   6.190257   4.934043   5.315690
    21  O    3.749344   3.499574   4.276883   2.714708   5.292167
    22  O    4.775339   3.949576   4.678287   3.995161   3.533145
    23  O    2.495829   4.255355   5.293125   3.900606   5.001425
    24  C    3.108465   5.164439   6.098222   4.829659   6.006778
    25  H    3.247802   5.893829   6.868250   5.677970   6.353306
    26  H    4.140841   5.758490   6.649475   5.240527   6.876165
    27  H    2.913541   4.823934   5.646575   4.605253   5.750608
    28  C    6.157296   5.267419   5.860222   5.313600   4.659855
    29  H    6.830002   5.679887   6.231184   5.535742   5.477465
    30  H    6.338882   6.007820   6.687555   6.094993   5.113441
    31  H    6.469124   5.250195   5.673180   5.461980   4.429622
                   11         12         13         14         15
    11  H    0.000000
    12  C    2.312341   0.000000
    13  H    2.740962   1.072879   0.000000
    14  H    2.742127   3.463399   4.420198   0.000000
    15  H    4.440554   2.314594   2.775587   4.385215   0.000000
    16  N    5.051835   4.338552   5.357852   3.432497   4.038774
    17  N    4.264757   3.950574   4.948290   3.056760   4.344096
    18  C    5.660694   4.352079   5.241741   4.451378   3.449718
    19  C    4.597690   4.953838   5.955880   3.033141   5.617255
    20  O    5.733072   6.098609   7.082887   4.176208   6.657999
    21  O    6.341163   4.828104   5.659457   4.986945   3.352012
    22  O    3.783752   4.699147   5.665951   2.177682   5.731158
    23  O    5.906940   4.509593   5.253201   5.238362   3.876372
    24  C    6.931844   5.199719   5.744786   6.495704   4.160934
    25  H    7.179901   5.541719   5.985313   7.042083   4.849765
    26  H    7.835647   6.130414   6.722519   7.107189   4.863605
    27  H    6.706410   4.730342   5.159843   6.452564   3.412798
    28  C    4.643576   5.975230   6.878715   3.208567   7.150823
    29  H    5.568890   6.741165   7.700347   3.714704   7.655735
    30  H    4.995043   6.377890   7.218626   4.048037   7.704029
    31  H    4.235376   5.875816   6.708598   3.006476   7.223831
                   16         17         18         19         20
    16  N    0.000000
    17  N    1.285958   0.000000
    18  C    1.433864   2.357001   0.000000
    19  C    2.294892   1.475488   3.638302   0.000000
    20  O    2.955363   2.357530   4.211803   1.210051   0.000000
    21  O    2.327749   3.439533   1.212676   4.622306   5.195182
    22  O    3.182468   2.342216   4.521238   1.357804   2.284540
    23  O    2.339266   2.689049   1.370852   4.044152   4.490908
    24  C    3.687685   4.133096   2.418671   5.499998   5.902815
    25  H    4.337350   4.512616   3.261626   5.822855   6.142926
    26  H    4.024420   4.692695   2.723946   5.956031   6.219238
    27  H    4.054164   4.525061   2.716631   5.972245   6.547341
    28  C    4.508471   3.698516   5.895588   2.406187   2.745469
    29  H    4.667498   4.099114   6.099284   2.700820   2.737308
    30  H    4.984517   4.005789   6.314706   2.716367   2.783864
    31  H    5.130250   4.334306   6.474859   3.244608   3.786157
                   21         22         23         24         25
    21  O    0.000000
    22  O    5.401209   0.000000
    23  O    2.279849   5.028569   0.000000
    24  C    2.734801   6.464297   1.456077   0.000000
    25  H    3.778650   6.809149   2.001578   1.097411   0.000000
    26  H    2.740703   7.017132   2.096927   1.093794   1.812053
    27  H    2.756210   6.769971   2.095459   1.094382   1.811162
    28  C    6.763203   1.462770   6.375560   7.825233   8.113081
    29  H    6.873487   2.102481   6.706775   8.159289   8.521686
    30  H    7.297798   2.100451   6.580629   8.013909   8.158899
    31  H    7.273200   2.000241   7.012349   8.436650   8.753847
                   26         27         28         29         30
    26  H    0.000000
    27  H    1.809754   0.000000
    28  C    8.337500   8.192850   0.000000
    29  H    8.543416   8.582268   1.094029   0.000000
    30  H    8.561097   8.461433   1.094171   1.811750   0.000000
    31  H    9.012267   8.685122   1.098327   1.814481   1.814516
                   31
    31  H    0.000000
 Stoichiometry    C11H14N2O4
 Framework group  C1[X(C11H14N2O4)]
 Deg. of freedom    87
 Full point group                 C1      NOp   1
 Largest Abelian subgroup         C1      NOp   1
 Largest concise Abelian subgroup C1      NOp   1
                         Standard orientation:                         
 ---------------------------------------------------------------------
 Center     Atomic      Atomic             Coordinates (Angstroms)
 Number     Number       Type             X           Y           Z
 ---------------------------------------------------------------------
      1          6           0        0.480766    0.888604   -0.736624
      2          6           0        0.894179    1.655624    0.613024
      3          6           0       -1.418539    2.001512    0.376816
      4          6           0       -0.995794    1.295510   -0.924162
      5          1           0        1.112737    0.639106   -1.592481
      6          1           0       -1.648466    0.786323   -1.609924
      7          6           0       -0.377957    1.736815    1.470134
      8          1           0       -0.317130    2.562762    2.201785
      9          1           0       -0.579614    0.820409    2.048909
     10          6           0        0.753498    2.596792   -0.516158
     11          1           0        1.532767    3.135071   -1.027447
     12          6           0       -0.739183    2.805955   -0.750231
     13          1           0       -1.148613    3.644278   -1.279997
     14          1           0        1.847808    1.418425    1.087532
     15          1           0       -2.455504    2.141771    0.653495
     16          7           0       -0.270867   -1.254775    0.703792
     17          7           0        0.465663   -0.929230   -0.298820
     18          6           0       -1.699459   -1.223383    0.585021
     19          6           0        1.865948   -1.361136   -0.126411
     20          8           0        2.215963   -2.508536   -0.285113
     21          8           0       -2.437918   -1.091435    1.537833
     22          8           0        2.694364   -0.300277    0.052301
     23          8           0       -2.137190   -1.481021   -0.688262
     24          6           0       -3.575151   -1.549485   -0.906758
     25          1           0       -3.638985   -1.752701   -1.983298
     26          1           0       -4.001563   -2.366220   -0.317265
     27          1           0       -4.032593   -0.588181   -0.653158
     28          6           0        4.132347   -0.566722    0.022179
     29          1           0        4.395240   -1.271586    0.816505
     30          1           0        4.415610   -0.943629   -0.965198
     31          1           0        4.549053    0.431846    0.210698
 ---------------------------------------------------------------------
 Rotational constants (GHZ):      0.6416383      0.4427878      0.3112087
 Standard basis: VSTO-6G (5D, 7F)
 There are    82 symmetry adapted cartesian basis functions of A   symmetry.
 There are    82 symmetry adapted basis functions of A   symmetry.
    82 basis functions,   492 primitive gaussians,    82 cartesian basis functions
    46 alpha electrons       46 beta electrons
       nuclear repulsion energy       738.5330137774 Hartrees.
 Integral buffers will be    131072 words long.
 Regular integral format.
 Two-electron integral symmetry is turned off.
 Nuclear repulsion after empirical dispersion term =      738.5220939959 Hartrees.
 Force inversion solution in PCM.
 ------------------------------------------------------------------------------
 Polarizable Continuum Model (PCM)
 =================================
 Model                : C-PCM.
 Atomic radii         : UFF (Universal Force Field).
 Polarization charges : Total charges.
 Charge compensation  : None.
 Solution method      : Matrix inversion.
 Cavity type          : Scaled VdW (van der Waals Surface) (Alpha=1.100).
 Cavity algorithm     : GePol (No added spheres)
                        Default sphere list used, NSphG=   31.
                        Lebedev-Laikov grids with approx.  5.0 points / Ang**2.
                        Smoothing algorithm: Karplus/York (Gamma=1.0000).
                        Polarization charges: spherical gaussians, with
                                              point-specific exponents (IZeta= 3).
                        Self-potential: point-specific (ISelfS= 7).
                        Self-field    : sphere-specific E.n sum rule (ISelfD= 2).
 1st derivatives      : Analytical E(r).r(x)/FMM algorithm (CHGder, D1EAlg=3).
                        Cavity 1st derivative terms included.
 2nd derivatives      : Analytical E(r).r(xy)/FMM algorithm (CHGder, D2EAlg=3).
                        Cavity 2nd derivative terms included.
 Solvent              : Water, Eps=  78.355300 Eps(inf)=   1.777849
 ------------------------------------------------------------------------------
 Do NDO integrals.
 One-electron integrals computed using PRISM.
 NBasis=    82 RedAO= F EigKep=  0.00D+00  NBF=    82
 NBsUse=    82 1.00D-04 EigRej=  0.00D+00 NBFU=    82
 Simple Huckel Guess.
 Overlap will be assumed to be unity.
 Keep J ints in memory in canonical form, NReq=8967075.
 Requested convergence on RMS density matrix=1.00D-08 within 128 cycles.
 Requested convergence on MAX density matrix=1.00D-06.
 Requested convergence on             energy=1.00D-06.
 No special actions if energy rises.
 Inv3:  Mode=1 IEnd=    15718563.
 Iteration    1 A*A^-1 deviation from unit magnitude is 5.77D-15 for    542.
 Iteration    1 A*A^-1 deviation from orthogonality  is 1.90D-15 for   1160    216.
 Iteration    1 A^-1*A deviation from unit magnitude is 5.55D-15 for    542.
 Iteration    1 A^-1*A deviation from orthogonality  is 2.17D-15 for   2244   1715.
 Error on total polarization charges = -0.00047
 SCF Done:  E(RPM6D3) = -0.327315616751E-01 A.U. after   18 cycles
            NFock= 17  Conv=0.67D-08     -V/T= 0.9995
 Range of M.O.s used for correlation:     1    82
 NBasis=    82 NAE=    46 NBE=    46 NFC=     0 NFV=     0
 NROrb=     82 NOA=    46 NOB=    46 NVA=    36 NVB=    36
 Symmetrizing basis deriv contribution to polar:
 IMax=3 JMax=2 DiffMx= 0.00D+00
 G2DrvN: will do    32 centers at a time, making    1 passes.
 Calling FoFCou, ICntrl=  3107 FMM=F I1Cent=   0 AccDes= 0.00D+00.
 NEqPCM:  Using equilibrium solvation (IEInf=0, Eps=  78.3553, EpsInf=   1.7778)
 G2PCM: DoFxE=T DoFxN=T DoGrad=T DoDP/DQ/DG/TGxP=FFFF NFrqRd=   0 IEInf=0 SqF1=F DoCFld=F IF1Alg=4.
 End of G2Drv F.D. properties file   721 does not exist.
 End of G2Drv F.D. properties file   722 does not exist.
 End of G2Drv F.D. properties file   788 does not exist.
          IDoAtm=1111111111111111111111111111111
 NEqPCM:  Using equilibrium solvation (IEInf=0, Eps=  78.3553, EpsInf=   1.7778)
          Differentiating once with respect to electric field.
                with respect to dipole field.
          Differentiating once with respect to nuclear coordinates.
          Electric field/nuclear overlap derivatives assumed to be zero.
 Keep J ints in memory in canonical form, NReq=12978252.
          There are    96 degrees of freedom in the 1st order CPHF.  IDoFFX=5 NUNeed=    96.
 LinEq1:  Iter=  0 NonCon=    96 RMS=2.38D-01 Max=7.32D+00 NDo=    96
 AX will form    96 AO Fock derivatives at one time.
 LinEq1:  Iter=  1 NonCon=    96 RMS=5.12D-02 Max=7.20D-01 NDo=    96
 LinEq1:  Iter=  2 NonCon=    96 RMS=1.26D-02 Max=2.16D-01 NDo=    96
 LinEq1:  Iter=  3 NonCon=    96 RMS=2.15D-03 Max=2.94D-02 NDo=    96
 LinEq1:  Iter=  4 NonCon=    96 RMS=4.62D-04 Max=7.59D-03 NDo=    96
 LinEq1:  Iter=  5 NonCon=    96 RMS=8.60D-05 Max=1.33D-03 NDo=    96
 LinEq1:  Iter=  6 NonCon=    95 RMS=1.69D-05 Max=1.53D-04 NDo=    96
 LinEq1:  Iter=  7 NonCon=    77 RMS=3.40D-06 Max=5.03D-05 NDo=    96
 LinEq1:  Iter=  8 NonCon=    28 RMS=5.78D-07 Max=7.83D-06 NDo=    96
 LinEq1:  Iter=  9 NonCon=     3 RMS=8.97D-08 Max=9.72D-07 NDo=    96
 LinEq1:  Iter= 10 NonCon=     3 RMS=1.45D-08 Max=1.40D-07 NDo=    96
 LinEq1:  Iter= 11 NonCon=     0 RMS=2.24D-09 Max=1.92D-08 NDo=    96
 Linear equations converged to 1.000D-08 1.000D-07 after    11 iterations.
 Isotropic polarizability for W=    0.000000      219.70 Bohr**3.
 End of Minotr F.D. properties file   721 does not exist.
 End of Minotr F.D. properties file   722 does not exist.
 End of Minotr F.D. properties file   788 does not exist.

 **********************************************************************

            Population analysis using the SCF density.

 **********************************************************************

 Orbital symmetries:
       Occupied  (A) (A) (A) (A) (A) (A) (A) (A) (A) (A) (A) (A)
                 (A) (A) (A) (A) (A) (A) (A) (A) (A) (A) (A) (A)
                 (A) (A) (A) (A) (A) (A) (A) (A) (A) (A) (A) (A)
                 (A) (A) (A) (A) (A) (A) (A) (A) (A) (A)
       Virtual   (A) (A) (A) (A) (A) (A) (A) (A) (A) (A) (A) (A)
                 (A) (A) (A) (A) (A) (A) (A) (A) (A) (A) (A) (A)
                 (A) (A) (A) (A) (A) (A) (A) (A) (A) (A) (A) (A)
 The electronic state is 1-A.
 Alpha  occ. eigenvalues --   -1.27245  -1.23491  -1.20497  -1.19123  -1.15743
 Alpha  occ. eigenvalues --   -1.13457  -1.03828  -0.98894  -0.95857  -0.95340
 Alpha  occ. eigenvalues --   -0.91585  -0.85767  -0.82105  -0.75778  -0.75192
 Alpha  occ. eigenvalues --   -0.73049  -0.71153  -0.69803  -0.68186  -0.64451
 Alpha  occ. eigenvalues --   -0.64346  -0.63368  -0.61957  -0.60781  -0.58244
 Alpha  occ. eigenvalues --   -0.56077  -0.55892  -0.55470  -0.54569  -0.54080
 Alpha  occ. eigenvalues --   -0.52682  -0.52145  -0.51012  -0.49796  -0.49281
 Alpha  occ. eigenvalues --   -0.48735  -0.47839  -0.45245  -0.45225  -0.44247
 Alpha  occ. eigenvalues --   -0.44047  -0.43331  -0.43007  -0.41842  -0.38354
 Alpha  occ. eigenvalues --   -0.32854
 Alpha virt. eigenvalues --   -0.07226  -0.00751  -0.00118   0.01579   0.03243
 Alpha virt. eigenvalues --    0.04255   0.06688   0.07712   0.07874   0.09358
 Alpha virt. eigenvalues --    0.09716   0.10754   0.10855   0.10920   0.11655
 Alpha virt. eigenvalues --    0.12172   0.13249   0.14410   0.14895   0.15011
 Alpha virt. eigenvalues --    0.15268   0.16799   0.18488   0.18528   0.18801
 Alpha virt. eigenvalues --    0.18906   0.19098   0.19500   0.19638   0.20043
 Alpha virt. eigenvalues --    0.20104   0.20429   0.20871   0.20994   0.21165
 Alpha virt. eigenvalues --    0.21784
          Condensed to atoms (all electrons):
               1          2          3          4          5          6
     1  C    4.251358   0.000000   0.000000   0.000000   0.000000   0.000000
     2  C    0.000000   4.038926   0.000000   0.000000   0.000000   0.000000
     3  C    0.000000   0.000000   4.116823   0.000000   0.000000   0.000000
     4  C    0.000000   0.000000   0.000000   4.151033   0.000000   0.000000
     5  H    0.000000   0.000000   0.000000   0.000000   0.799197   0.000000
     6  H    0.000000   0.000000   0.000000   0.000000   0.000000   0.820261
     7  C    0.000000   0.000000   0.000000   0.000000   0.000000   0.000000
     8  H    0.000000   0.000000   0.000000   0.000000   0.000000   0.000000
     9  H    0.000000   0.000000   0.000000   0.000000   0.000000   0.000000
    10  C    0.000000   0.000000   0.000000   0.000000   0.000000   0.000000
    11  H    0.000000   0.000000   0.000000   0.000000   0.000000   0.000000
    12  C    0.000000   0.000000   0.000000   0.000000   0.000000   0.000000
    13  H    0.000000   0.000000   0.000000   0.000000   0.000000   0.000000
    14  H    0.000000   0.000000   0.000000   0.000000   0.000000   0.000000
    15  H    0.000000   0.000000   0.000000   0.000000   0.000000   0.000000
    16  N    0.000000   0.000000   0.000000   0.000000   0.000000   0.000000
    17  N    0.000000   0.000000   0.000000   0.000000   0.000000   0.000000
    18  C    0.000000   0.000000   0.000000   0.000000   0.000000   0.000000
    19  C    0.000000   0.000000   0.000000   0.000000   0.000000   0.000000
    20  O    0.000000   0.000000   0.000000   0.000000   0.000000   0.000000
    21  O    0.000000   0.000000   0.000000   0.000000   0.000000   0.000000
    22  O    0.000000   0.000000   0.000000   0.000000   0.000000   0.000000
    23  O    0.000000   0.000000   0.000000   0.000000   0.000000   0.000000
    24  C    0.000000   0.000000   0.000000   0.000000   0.000000   0.000000
    25  H    0.000000   0.000000   0.000000   0.000000   0.000000   0.000000
    26  H    0.000000   0.000000   0.000000   0.000000   0.000000   0.000000
    27  H    0.000000   0.000000   0.000000   0.000000   0.000000   0.000000
    28  C    0.000000   0.000000   0.000000   0.000000   0.000000   0.000000
    29  H    0.000000   0.000000   0.000000   0.000000   0.000000   0.000000
    30  H    0.000000   0.000000   0.000000   0.000000   0.000000   0.000000
    31  H    0.000000   0.000000   0.000000   0.000000   0.000000   0.000000
               7          8          9         10         11         12
     1  C    0.000000   0.000000   0.000000   0.000000   0.000000   0.000000
     2  C    0.000000   0.000000   0.000000   0.000000   0.000000   0.000000
     3  C    0.000000   0.000000   0.000000   0.000000   0.000000   0.000000
     4  C    0.000000   0.000000   0.000000   0.000000   0.000000   0.000000
     5  H    0.000000   0.000000   0.000000   0.000000   0.000000   0.000000
     6  H    0.000000   0.000000   0.000000   0.000000   0.000000   0.000000
     7  C    4.279679   0.000000   0.000000   0.000000   0.000000   0.000000
     8  H    0.000000   0.829912   0.000000   0.000000   0.000000   0.000000
     9  H    0.000000   0.000000   0.827022   0.000000   0.000000   0.000000
    10  C    0.000000   0.000000   0.000000   4.014397   0.000000   0.000000
    11  H    0.000000   0.000000   0.000000   0.000000   0.821192   0.000000
    12  C    0.000000   0.000000   0.000000   0.000000   0.000000   4.214576
    13  H    0.000000   0.000000   0.000000   0.000000   0.000000   0.000000
    14  H    0.000000   0.000000   0.000000   0.000000   0.000000   0.000000
    15  H    0.000000   0.000000   0.000000   0.000000   0.000000   0.000000
    16  N    0.000000   0.000000   0.000000   0.000000   0.000000   0.000000
    17  N    0.000000   0.000000   0.000000   0.000000   0.000000   0.000000
    18  C    0.000000   0.000000   0.000000   0.000000   0.000000   0.000000
    19  C    0.000000   0.000000   0.000000   0.000000   0.000000   0.000000
    20  O    0.000000   0.000000   0.000000   0.000000   0.000000   0.000000
    21  O    0.000000   0.000000   0.000000   0.000000   0.000000   0.000000
    22  O    0.000000   0.000000   0.000000   0.000000   0.000000   0.000000
    23  O    0.000000   0.000000   0.000000   0.000000   0.000000   0.000000
    24  C    0.000000   0.000000   0.000000   0.000000   0.000000   0.000000
    25  H    0.000000   0.000000   0.000000   0.000000   0.000000   0.000000
    26  H    0.000000   0.000000   0.000000   0.000000   0.000000   0.000000
    27  H    0.000000   0.000000   0.000000   0.000000   0.000000   0.000000
    28  C    0.000000   0.000000   0.000000   0.000000   0.000000   0.000000
    29  H    0.000000   0.000000   0.000000   0.000000   0.000000   0.000000
    30  H    0.000000   0.000000   0.000000   0.000000   0.000000   0.000000
    31  H    0.000000   0.000000   0.000000   0.000000   0.000000   0.000000
              13         14         15         16         17         18
     1  C    0.000000   0.000000   0.000000   0.000000   0.000000   0.000000
     2  C    0.000000   0.000000   0.000000   0.000000   0.000000   0.000000
     3  C    0.000000   0.000000   0.000000   0.000000   0.000000   0.000000
     4  C    0.000000   0.000000   0.000000   0.000000   0.000000   0.000000
     5  H    0.000000   0.000000   0.000000   0.000000   0.000000   0.000000
     6  H    0.000000   0.000000   0.000000   0.000000   0.000000   0.000000
     7  C    0.000000   0.000000   0.000000   0.000000   0.000000   0.000000
     8  H    0.000000   0.000000   0.000000   0.000000   0.000000   0.000000
     9  H    0.000000   0.000000   0.000000   0.000000   0.000000   0.000000
    10  C    0.000000   0.000000   0.000000   0.000000   0.000000   0.000000
    11  H    0.000000   0.000000   0.000000   0.000000   0.000000   0.000000
    12  C    0.000000   0.000000   0.000000   0.000000   0.000000   0.000000
    13  H    0.816350   0.000000   0.000000   0.000000   0.000000   0.000000
    14  H    0.000000   0.814040   0.000000   0.000000   0.000000   0.000000
    15  H    0.000000   0.000000   0.831314   0.000000   0.000000   0.000000
    16  N    0.000000   0.000000   0.000000   5.420768   0.000000   0.000000
    17  N    0.000000   0.000000   0.000000   0.000000   5.032073   0.000000
    18  C    0.000000   0.000000   0.000000   0.000000   0.000000   3.273061
    19  C    0.000000   0.000000   0.000000   0.000000   0.000000   0.000000
    20  O    0.000000   0.000000   0.000000   0.000000   0.000000   0.000000
    21  O    0.000000   0.000000   0.000000   0.000000   0.000000   0.000000
    22  O    0.000000   0.000000   0.000000   0.000000   0.000000   0.000000
    23  O    0.000000   0.000000   0.000000   0.000000   0.000000   0.000000
    24  C    0.000000   0.000000   0.000000   0.000000   0.000000   0.000000
    25  H    0.000000   0.000000   0.000000   0.000000   0.000000   0.000000
    26  H    0.000000   0.000000   0.000000   0.000000   0.000000   0.000000
    27  H    0.000000   0.000000   0.000000   0.000000   0.000000   0.000000
    28  C    0.000000   0.000000   0.000000   0.000000   0.000000   0.000000
    29  H    0.000000   0.000000   0.000000   0.000000   0.000000   0.000000
    30  H    0.000000   0.000000   0.000000   0.000000   0.000000   0.000000
    31  H    0.000000   0.000000   0.000000   0.000000   0.000000   0.000000
              19         20         21         22         23         24
     1  C    0.000000   0.000000   0.000000   0.000000   0.000000   0.000000
     2  C    0.000000   0.000000   0.000000   0.000000   0.000000   0.000000
     3  C    0.000000   0.000000   0.000000   0.000000   0.000000   0.000000
     4  C    0.000000   0.000000   0.000000   0.000000   0.000000   0.000000
     5  H    0.000000   0.000000   0.000000   0.000000   0.000000   0.000000
     6  H    0.000000   0.000000   0.000000   0.000000   0.000000   0.000000
     7  C    0.000000   0.000000   0.000000   0.000000   0.000000   0.000000
     8  H    0.000000   0.000000   0.000000   0.000000   0.000000   0.000000
     9  H    0.000000   0.000000   0.000000   0.000000   0.000000   0.000000
    10  C    0.000000   0.000000   0.000000   0.000000   0.000000   0.000000
    11  H    0.000000   0.000000   0.000000   0.000000   0.000000   0.000000
    12  C    0.000000   0.000000   0.000000   0.000000   0.000000   0.000000
    13  H    0.000000   0.000000   0.000000   0.000000   0.000000   0.000000
    14  H    0.000000   0.000000   0.000000   0.000000   0.000000   0.000000
    15  H    0.000000   0.000000   0.000000   0.000000   0.000000   0.000000
    16  N    0.000000   0.000000   0.000000   0.000000   0.000000   0.000000
    17  N    0.000000   0.000000   0.000000   0.000000   0.000000   0.000000
    18  C    0.000000   0.000000   0.000000   0.000000   0.000000   0.000000
    19  C    3.327937   0.000000   0.000000   0.000000   0.000000   0.000000
    20  O    0.000000   6.532062   0.000000   0.000000   0.000000   0.000000
    21  O    0.000000   0.000000   6.560242   0.000000   0.000000   0.000000
    22  O    0.000000   0.000000   0.000000   6.405021   0.000000   0.000000
    23  O    0.000000   0.000000   0.000000   0.000000   6.445602   0.000000
    24  C    0.000000   0.000000   0.000000   0.000000   0.000000   4.173295
    25  H    0.000000   0.000000   0.000000   0.000000   0.000000   0.000000
    26  H    0.000000   0.000000   0.000000   0.000000   0.000000   0.000000
    27  H    0.000000   0.000000   0.000000   0.000000   0.000000   0.000000
    28  C    0.000000   0.000000   0.000000   0.000000   0.000000   0.000000
    29  H    0.000000   0.000000   0.000000   0.000000   0.000000   0.000000
    30  H    0.000000   0.000000   0.000000   0.000000   0.000000   0.000000
    31  H    0.000000   0.000000   0.000000   0.000000   0.000000   0.000000
              25         26         27         28         29         30
     1  C    0.000000   0.000000   0.000000   0.000000   0.000000   0.000000
     2  C    0.000000   0.000000   0.000000   0.000000   0.000000   0.000000
     3  C    0.000000   0.000000   0.000000   0.000000   0.000000   0.000000
     4  C    0.000000   0.000000   0.000000   0.000000   0.000000   0.000000
     5  H    0.000000   0.000000   0.000000   0.000000   0.000000   0.000000
     6  H    0.000000   0.000000   0.000000   0.000000   0.000000   0.000000
     7  C    0.000000   0.000000   0.000000   0.000000   0.000000   0.000000
     8  H    0.000000   0.000000   0.000000   0.000000   0.000000   0.000000
     9  H    0.000000   0.000000   0.000000   0.000000   0.000000   0.000000
    10  C    0.000000   0.000000   0.000000   0.000000   0.000000   0.000000
    11  H    0.000000   0.000000   0.000000   0.000000   0.000000   0.000000
    12  C    0.000000   0.000000   0.000000   0.000000   0.000000   0.000000
    13  H    0.000000   0.000000   0.000000   0.000000   0.000000   0.000000
    14  H    0.000000   0.000000   0.000000   0.000000   0.000000   0.000000
    15  H    0.000000   0.000000   0.000000   0.000000   0.000000   0.000000
    16  N    0.000000   0.000000   0.000000   0.000000   0.000000   0.000000
    17  N    0.000000   0.000000   0.000000   0.000000   0.000000   0.000000
    18  C    0.000000   0.000000   0.000000   0.000000   0.000000   0.000000
    19  C    0.000000   0.000000   0.000000   0.000000   0.000000   0.000000
    20  O    0.000000   0.000000   0.000000   0.000000   0.000000   0.000000
    21  O    0.000000   0.000000   0.000000   0.000000   0.000000   0.000000
    22  O    0.000000   0.000000   0.000000   0.000000   0.000000   0.000000
    23  O    0.000000   0.000000   0.000000   0.000000   0.000000   0.000000
    24  C    0.000000   0.000000   0.000000   0.000000   0.000000   0.000000
    25  H    0.829708   0.000000   0.000000   0.000000   0.000000   0.000000
    26  H    0.000000   0.846682   0.000000   0.000000   0.000000   0.000000
    27  H    0.000000   0.000000   0.845351   0.000000   0.000000   0.000000
    28  C    0.000000   0.000000   0.000000   4.178278   0.000000   0.000000
    29  H    0.000000   0.000000   0.000000   0.000000   0.840948   0.000000
    30  H    0.000000   0.000000   0.000000   0.000000   0.000000   0.839892
    31  H    0.000000   0.000000   0.000000   0.000000   0.000000   0.000000
              31
     1  C    0.000000
     2  C    0.000000
     3  C    0.000000
     4  C    0.000000
     5  H    0.000000
     6  H    0.000000
     7  C    0.000000
     8  H    0.000000
     9  H    0.000000
    10  C    0.000000
    11  H    0.000000
    12  C    0.000000
    13  H    0.000000
    14  H    0.000000
    15  H    0.000000
    16  N    0.000000
    17  N    0.000000
    18  C    0.000000
    19  C    0.000000
    20  O    0.000000
    21  O    0.000000
    22  O    0.000000
    23  O    0.000000
    24  C    0.000000
    25  H    0.000000
    26  H    0.000000
    27  H    0.000000
    28  C    0.000000
    29  H    0.000000
    30  H    0.000000
    31  H    0.823000
 Mulliken charges:
               1
     1  C   -0.251358
     2  C   -0.038926
     3  C   -0.116823
     4  C   -0.151033
     5  H    0.200803
     6  H    0.179739
     7  C   -0.279679
     8  H    0.170088
     9  H    0.172978
    10  C   -0.014397
    11  H    0.178808
    12  C   -0.214576
    13  H    0.183650
    14  H    0.185960
    15  H    0.168686
    16  N   -0.420768
    17  N   -0.032073
    18  C    0.726939
    19  C    0.672063
    20  O   -0.532062
    21  O   -0.560242
    22  O   -0.405021
    23  O   -0.445602
    24  C   -0.173295
    25  H    0.170292
    26  H    0.153318
    27  H    0.154649
    28  C   -0.178278
    29  H    0.159052
    30  H    0.160108
    31  H    0.177000
 Sum of Mulliken charges =   0.00000
 Mulliken charges with hydrogens summed into heavy atoms:
               1
     1  C   -0.050555
     2  C    0.147034
     3  C    0.051862
     4  C    0.028706
     7  C    0.063387
    10  C    0.164411
    12  C   -0.030926
    16  N   -0.420768
    17  N   -0.032073
    18  C    0.726939
    19  C    0.672063
    20  O   -0.532062
    21  O   -0.560242
    22  O   -0.405021
    23  O   -0.445602
    24  C    0.304965
    28  C    0.317882
 APT charges:
               1
     1  C   -2.890882
     2  C    0.504026
     3  C   -0.121560
     4  C   -0.198765
     5  H    0.423478
     6  H    0.198995
     7  C   -0.421208
     8  H    0.240672
     9  H    0.194995
    10  C    0.469802
    11  H    0.264794
    12  C   -0.198567
    13  H    0.277630
    14  H    0.190414
    15  H    0.210146
    16  N   -1.549067
    17  N    1.696059
    18  C    2.318868
    19  C    2.133857
    20  O   -1.242437
    21  O   -1.268821
    22  O   -1.028030
    23  O   -1.139438
    24  C   -0.083680
    25  H    0.177350
    26  H    0.190859
    27  H    0.166354
    28  C   -0.068592
    29  H    0.186184
    30  H    0.181193
    31  H    0.185428
 Sum of APT charges =   0.00006
 APT charges with hydrogens summed into heavy atoms:
               1
     1  C   -2.467404
     2  C    0.694439
     3  C    0.088586
     4  C    0.000230
     7  C    0.014459
    10  C    0.734596
    12  C    0.079063
    16  N   -1.549067
    17  N    1.696059
    18  C    2.318868
    19  C    2.133857
    20  O   -1.242437
    21  O   -1.268821
    22  O   -1.028030
    23  O   -1.139438
    24  C    0.450882
    28  C    0.484212
 Charge=              0.0000 electrons
 Dipole moment (field-independent basis, Debye):
    X=              2.8177    Y=              8.4602    Z=             -3.5851  Tot=              9.6108
 N-N= 7.385220939959D+02 E-N=-1.354870659188D+03  KE=-5.953008494296D+01
  Exact polarizability: 199.069  42.695 331.269 -21.081 -38.958 128.765
 Approx polarizability: 105.429  14.723 135.761 -11.914 -11.693  81.063
 D2PCM: C-PCM CHGder 2nd derivatives, FixD1E=F FixD2E=F DoIter=F DoCFld=F I1PDM=0
 Calling FoFJK, ICntrl=    100127 FMM=F ISym2X=0 I1Cent= 0 IOpClX= 0 NMat=1 NMatS=1 NMatT=0.
 Full mass-weighted force constant matrix:
 Low frequencies --- -931.2221   -3.4958   -0.1452   -0.0330    0.3776    3.3514
 Low frequencies ---    6.2455   22.4038   37.6591
 ******    1 imaginary frequencies (negative Signs) ****** 
 Diagonal vibrational polarizability:
      124.3841540     463.3340555     273.2836548
 Harmonic frequencies (cm**-1), IR intensities (KM/Mole), Raman scattering
 activities (A**4/AMU), depolarization ratios for plane and unpolarized
 incident light, reduced masses (AMU), force constants (mDyne/A),
 and normal coordinates:
                      1                      2                      3
                      A                      A                      A
 Frequencies --   -931.2220                22.3386                37.6135
 Red. masses --      8.5954                 6.1575                 4.6017
 Frc consts  --      4.3916                 0.0018                 0.0038
 IR Inten    --  10663.3361                 3.5863                 4.1525
  Atom  AN      X      Y      Z        X      Y      Z        X      Y      Z
     1   6     0.11   0.65  -0.11    -0.01   0.00   0.03     0.01  -0.03  -0.01
     2   6    -0.01  -0.09   0.05     0.04  -0.01   0.02    -0.05  -0.03   0.01
     3   6    -0.01   0.01   0.02     0.04   0.02   0.09    -0.05  -0.06  -0.08
     4   6    -0.03   0.03  -0.02    -0.01   0.02   0.07     0.01  -0.06  -0.06
     5   1     0.01  -0.44   0.23    -0.04  -0.02   0.01     0.04  -0.04   0.02
     6   1     0.02  -0.05   0.04    -0.04   0.03   0.09     0.04  -0.07  -0.08
     7   6    -0.01   0.00   0.02     0.06   0.00   0.06    -0.09  -0.04  -0.04
     8   1    -0.01   0.01  -0.02     0.09   0.00   0.06    -0.12  -0.03  -0.05
     9   1    -0.02   0.03   0.04     0.07   0.00   0.06    -0.09  -0.03  -0.03
    10   6     0.01  -0.16  -0.15     0.02  -0.01   0.02    -0.02  -0.04   0.00
    11   1    -0.06   0.15   0.19     0.01  -0.02   0.00    -0.01  -0.03   0.03
    12   6    -0.06   0.02   0.01     0.02   0.02   0.07    -0.02  -0.05  -0.06
    13   1    -0.03   0.03   0.07     0.01   0.02   0.08    -0.01  -0.06  -0.07
    14   1    -0.03   0.03   0.06     0.05  -0.03  -0.01    -0.07  -0.02   0.04
    15   1     0.00  -0.02   0.02     0.05   0.04   0.12    -0.06  -0.07  -0.12
    16   7     0.07  -0.05  -0.06    -0.05   0.02   0.02     0.03  -0.04   0.01
    17   7    -0.05  -0.30   0.16     0.00   0.00   0.05     0.02  -0.04   0.01
    18   6    -0.11   0.02  -0.02    -0.04  -0.01  -0.05     0.02  -0.05   0.03
    19   6     0.08  -0.03   0.01    -0.01   0.01   0.10     0.03  -0.01   0.03
    20   8     0.02  -0.02  -0.01    -0.03  -0.03   0.38     0.06  -0.01   0.10
    21   8     0.01   0.01   0.01    -0.09  -0.02  -0.08     0.05  -0.22   0.08
    22   8    -0.01   0.00   0.00     0.01   0.05  -0.23     0.01   0.02  -0.04
    23   8     0.02   0.00   0.01     0.02  -0.02  -0.07    -0.02   0.21   0.00
    24   6    -0.01   0.00   0.00     0.04  -0.06  -0.13    -0.03   0.33   0.02
    25   1     0.03   0.00  -0.01     0.09  -0.09  -0.13    -0.06   0.61  -0.03
    26   1    -0.01  -0.01  -0.01     0.03  -0.05  -0.13    -0.04   0.19  -0.18
    27   1     0.00   0.01  -0.01     0.00  -0.06  -0.18     0.02   0.28   0.28
    28   6     0.00   0.00   0.00     0.01   0.03  -0.28     0.01   0.06  -0.04
    29   1     0.01   0.00   0.00     0.06   0.21  -0.15     0.04   0.12   0.01
    30   1     0.00   0.00   0.00    -0.07  -0.20  -0.22     0.01   0.00  -0.02
    31   1    -0.02   0.01   0.00     0.03   0.07  -0.54    -0.01   0.08  -0.10
                      4                      5                      6
                      A                      A                      A
 Frequencies --     52.0498                71.0179                78.4618
 Red. masses --      3.6336                 1.2846                 3.2939
 Frc consts  --      0.0058                 0.0038                 0.0119
 IR Inten    --      0.5820                 2.1610                 1.5936
  Atom  AN      X      Y      Z        X      Y      Z        X      Y      Z
     1   6    -0.05   0.00  -0.06     0.00   0.00   0.01     0.03   0.04   0.02
     2   6     0.10   0.06  -0.14     0.00   0.01   0.00    -0.02   0.01   0.05
     3   6     0.07   0.02   0.12     0.00   0.02  -0.01     0.01   0.12  -0.08
     4   6    -0.07  -0.02   0.09     0.00   0.00   0.00     0.05   0.10  -0.05
     5   1    -0.14  -0.04  -0.12     0.00  -0.02   0.02     0.05   0.02   0.04
     6   1    -0.15  -0.04   0.18     0.00  -0.01   0.01     0.06   0.12  -0.08
     7   6     0.20   0.06   0.01     0.00   0.03   0.00    -0.06   0.07  -0.02
     8   1     0.28   0.08  -0.02     0.00   0.04  -0.01    -0.06   0.07  -0.02
     9   1     0.29   0.07   0.05    -0.01   0.04   0.01    -0.14   0.08  -0.04
    10   6    -0.05   0.02  -0.16     0.01   0.00  -0.01     0.09   0.02   0.04
    11   1    -0.11   0.01  -0.27     0.02  -0.02  -0.01     0.15  -0.01   0.09
    12   6    -0.08  -0.01   0.02     0.01   0.00  -0.02     0.11   0.09  -0.04
    13   1    -0.15  -0.03   0.04     0.02   0.00  -0.03     0.18   0.11  -0.07
    14   1     0.16   0.10  -0.24     0.00   0.01   0.01    -0.05  -0.04   0.10
    15   1     0.10   0.01   0.24     0.00   0.03  -0.02     0.00   0.17  -0.14
    16   7    -0.02   0.03   0.01    -0.01   0.01   0.04    -0.01   0.04   0.02
    17   7    -0.02   0.01   0.00    -0.01   0.00   0.04    -0.03   0.03   0.01
    18   6    -0.02  -0.04  -0.01    -0.01  -0.01   0.02    -0.01  -0.05   0.03
    19   6    -0.02   0.01   0.02    -0.01   0.00   0.02    -0.03   0.01  -0.02
    20   8    -0.02   0.01   0.00    -0.01   0.00  -0.01    -0.06   0.01  -0.04
    21   8    -0.04  -0.17  -0.01    -0.03  -0.05   0.01    -0.01  -0.21   0.05
    22   8    -0.01   0.00   0.06     0.00  -0.01   0.04    -0.01  -0.01  -0.02
    23   8     0.00   0.07  -0.04     0.02   0.01   0.00    -0.01   0.04   0.01
    24   6     0.01  -0.01  -0.05     0.03  -0.01  -0.03     0.00  -0.18   0.04
    25   1     0.03   0.19  -0.09     0.06   0.00  -0.04     0.00   0.04   0.00
    26   1     0.09  -0.16  -0.21     0.03  -0.03  -0.05     0.18  -0.39  -0.11
    27   1    -0.08  -0.10   0.13     0.00  -0.02  -0.03    -0.18  -0.32   0.26
    28   6    -0.01  -0.03   0.13     0.00   0.00  -0.09    -0.02  -0.04  -0.01
    29   1    -0.06   0.00   0.17     0.03  -0.42  -0.47    -0.01   0.14   0.15
    30   1     0.03  -0.08   0.16    -0.04   0.52  -0.30    -0.05  -0.29   0.07
    31   1     0.00  -0.03   0.11     0.00  -0.10   0.43     0.01  -0.01  -0.27
                      7                      8                      9
                      A                      A                      A
 Frequencies --     84.4916                93.9832               102.0555
 Red. masses --      1.2103                 2.9701                 4.1442
 Frc consts  --      0.0051                 0.0155                 0.0254
 IR Inten    --      0.7464                 1.9918                 1.5520
  Atom  AN      X      Y      Z        X      Y      Z        X      Y      Z
     1   6     0.00   0.00   0.00     0.02   0.02  -0.05    -0.02  -0.09   0.01
     2   6     0.00  -0.01   0.00     0.03  -0.03  -0.02     0.06  -0.09   0.00
     3   6     0.00  -0.02   0.00     0.03   0.00   0.00     0.09   0.08   0.01
     4   6     0.00  -0.01   0.00     0.02   0.05  -0.03     0.01   0.01   0.03
     5   1     0.01   0.01   0.00     0.02   0.04  -0.05    -0.06  -0.13  -0.02
     6   1     0.00  -0.01   0.00     0.01   0.08  -0.04    -0.04   0.04   0.05
     7   6     0.00  -0.02   0.00     0.03  -0.05  -0.01     0.07   0.00   0.00
     8   1    -0.01  -0.03   0.01     0.04  -0.08   0.02     0.14   0.00   0.01
     9   1     0.00  -0.03   0.00     0.02  -0.07  -0.05     0.01   0.01   0.00
    10   6    -0.01   0.00   0.01     0.04   0.01   0.02     0.12  -0.12  -0.03
    11   1    -0.01   0.01   0.01     0.04   0.02   0.04     0.16  -0.19  -0.05
    12   6    -0.01  -0.01   0.01     0.04   0.04   0.03     0.14  -0.01  -0.02
    13   1    -0.01  -0.01   0.01     0.05   0.06   0.06     0.20   0.01  -0.03
    14   1     0.00   0.00   0.00     0.03  -0.05  -0.02     0.04  -0.14   0.01
    15   1    -0.01  -0.03   0.00     0.03   0.00   0.00     0.10   0.17   0.02
    16   7     0.00  -0.01  -0.02    -0.01  -0.02  -0.12    -0.05  -0.08   0.02
    17   7     0.01   0.00  -0.01     0.01   0.01  -0.10    -0.04  -0.09   0.02
    18   6     0.00   0.02  -0.02    -0.01  -0.02  -0.06    -0.05  -0.04   0.00
    19   6     0.01   0.00   0.00     0.01   0.02  -0.01    -0.01  -0.01   0.01
    20   8     0.01  -0.01   0.03     0.03   0.00   0.15     0.09   0.03  -0.07
    21   8     0.01   0.09  -0.02     0.06  -0.06   0.00    -0.06   0.02  -0.01
    22   8     0.01   0.00  -0.01    -0.01   0.04  -0.07    -0.12   0.06   0.08
    23   8    -0.01  -0.01   0.00    -0.11   0.02  -0.03    -0.05  -0.07   0.00
    24   6    -0.02  -0.03   0.02    -0.14  -0.06   0.13    -0.05   0.03  -0.01
    25   1    -0.05   0.52  -0.08    -0.25  -0.28   0.18    -0.06   0.12  -0.03
    26   1     0.12  -0.39  -0.37    -0.07   0.06   0.34    -0.09   0.00  -0.08
    27   1    -0.14  -0.22   0.55    -0.11  -0.01  -0.01    -0.01   0.03   0.06
    28   6     0.01   0.00   0.01    -0.01   0.04   0.12    -0.09   0.30  -0.03
    29   1    -0.01  -0.06  -0.05    -0.13  -0.22  -0.07     0.10   0.42   0.01
    30   1     0.02   0.08  -0.02     0.14   0.36   0.04    -0.11   0.25  -0.02
    31   1     0.00  -0.01   0.09    -0.03  -0.02   0.51    -0.24   0.38  -0.16
                     10                     11                     12
                      A                      A                      A
 Frequencies --    131.3876               154.1363               169.7291
 Red. masses --      3.7871                 4.9036                 4.7179
 Frc consts  --      0.0385                 0.0686                 0.0801
 IR Inten    --      1.9166                14.8958                 2.7937
  Atom  AN      X      Y      Z        X      Y      Z        X      Y      Z
     1   6     0.11   0.02   0.02    -0.03  -0.05  -0.06     0.19   0.07  -0.01
     2   6     0.05   0.06   0.01    -0.01  -0.13   0.00     0.10   0.08   0.00
     3   6     0.02  -0.14  -0.01     0.00  -0.07   0.01     0.06  -0.19  -0.04
     4   6     0.09  -0.09  -0.02    -0.03  -0.03  -0.03     0.18  -0.05  -0.08
     5   1     0.17   0.03   0.06    -0.06  -0.07  -0.07     0.29   0.08   0.06
     6   1     0.14  -0.14  -0.03    -0.05   0.01  -0.03     0.26  -0.08  -0.14
     7   6     0.04  -0.04   0.00    -0.01  -0.12   0.00     0.08  -0.08  -0.02
     8   1    -0.04  -0.02  -0.01     0.02  -0.14   0.01    -0.04  -0.08  -0.02
     9   1     0.12  -0.05   0.02    -0.03  -0.12   0.00     0.19  -0.10  -0.02
    10   6    -0.02   0.05   0.01     0.01  -0.11   0.01     0.01   0.12   0.04
    11   1    -0.06   0.11   0.01     0.03  -0.10   0.04    -0.04   0.21   0.05
    12   6    -0.04  -0.07   0.00     0.02  -0.04   0.04    -0.01  -0.04   0.02
    13   1    -0.11  -0.10   0.01     0.04   0.00   0.08    -0.10  -0.05   0.07
    14   1     0.07   0.13   0.01    -0.02  -0.17  -0.01     0.12   0.17   0.00
    15   1     0.01  -0.24  -0.02     0.00  -0.05   0.02     0.04  -0.34  -0.06
    16   7    -0.05   0.03  -0.03     0.01   0.08   0.08    -0.03   0.08   0.05
    17   7     0.03   0.02   0.03    -0.03  -0.03   0.01    -0.07   0.05   0.01
    18   6    -0.04   0.07  -0.06     0.01   0.14   0.07    -0.04  -0.02   0.07
    19   6     0.01  -0.01   0.07    -0.02  -0.02  -0.06    -0.08   0.01  -0.04
    20   8     0.01   0.01  -0.02    -0.01  -0.02  -0.03    -0.11   0.00  -0.02
    21   8    -0.03   0.00  -0.04    -0.02   0.08   0.06    -0.06  -0.05   0.06
    22   8     0.01  -0.03   0.19    -0.06   0.02  -0.14    -0.10   0.03  -0.11
    23   8    -0.09   0.17  -0.06     0.09   0.31   0.01     0.01  -0.14   0.08
    24   6    -0.10  -0.11   0.07     0.13  -0.14  -0.06     0.03   0.05  -0.06
    25   1    -0.16  -0.26   0.11     0.26  -0.31  -0.04     0.11   0.17  -0.09
    26   1     0.08  -0.10   0.22     0.32  -0.18   0.02    -0.11   0.03  -0.18
    27   1    -0.23  -0.15   0.00    -0.16  -0.24  -0.23     0.11   0.07   0.00
    28   6     0.02   0.04  -0.14    -0.05   0.08   0.09    -0.10   0.08   0.05
    29   1     0.24   0.16  -0.11    -0.14   0.05   0.09    -0.16   0.06   0.06
    30   1    -0.20  -0.09  -0.16     0.12   0.16   0.11     0.03   0.13   0.07
    31   1     0.02   0.09  -0.39    -0.13   0.09   0.22    -0.15   0.09   0.14
                     13                     14                     15
                      A                      A                      A
 Frequencies --    180.5293               209.8856               257.4039
 Red. masses --      4.5657                 6.7787                 4.7956
 Frc consts  --      0.0877                 0.1759                 0.1872
 IR Inten    --      2.4193                29.3198                33.4648
  Atom  AN      X      Y      Z        X      Y      Z        X      Y      Z
     1   6     0.07  -0.02   0.19     0.03  -0.05   0.03     0.02  -0.02   0.03
     2   6     0.00   0.16   0.08     0.02  -0.05   0.07     0.02   0.03  -0.01
     3   6    -0.01   0.05   0.01     0.03  -0.06  -0.01     0.02   0.00  -0.01
     4   6     0.06  -0.10   0.12     0.02  -0.11   0.02     0.03  -0.01   0.01
     5   1     0.13   0.02   0.23     0.02  -0.12   0.03     0.04   0.02   0.04
     6   1     0.09  -0.22   0.17     0.03  -0.15   0.04     0.04  -0.02   0.01
     7   6    -0.02   0.24   0.06     0.01  -0.01   0.03     0.02   0.01   0.00
     8   1    -0.06   0.33  -0.04    -0.01   0.04  -0.02     0.00   0.00   0.01
     9   1     0.01   0.29   0.15    -0.01   0.03   0.08     0.03   0.00  -0.03
    10   6    -0.03   0.07   0.00     0.05  -0.16  -0.02     0.01   0.04   0.00
    11   1    -0.04   0.04  -0.05     0.06  -0.17  -0.02     0.00   0.03  -0.01
    12   6    -0.03  -0.07  -0.08     0.05  -0.11  -0.04     0.01   0.00  -0.02
    13   1    -0.06  -0.17  -0.22     0.08  -0.12  -0.07    -0.01  -0.02  -0.04
    14   1     0.00   0.24   0.12     0.01  -0.06   0.08     0.02   0.06   0.00
    15   1    -0.02   0.04  -0.03     0.02  -0.04  -0.03     0.02   0.00  -0.01
    16   7     0.00  -0.12  -0.02    -0.08   0.06   0.12    -0.05  -0.17  -0.11
    17   7     0.02  -0.08   0.01    -0.01   0.03   0.17    -0.05  -0.04  -0.06
    18   6     0.00   0.00  -0.03    -0.09   0.00  -0.02    -0.07  -0.02   0.08
    19   6     0.01  -0.11  -0.06     0.04   0.19   0.02    -0.02   0.07   0.00
    20   8     0.05  -0.10  -0.05     0.11   0.23  -0.13     0.15   0.11   0.03
    21   8     0.00   0.02  -0.04    -0.19  -0.02  -0.09     0.12   0.05   0.21
    22   8    -0.05  -0.04  -0.18     0.13   0.18  -0.18    -0.02   0.08   0.04
    23   8    -0.02   0.08  -0.05    -0.08  -0.02  -0.03    -0.11   0.05   0.10
    24   6    -0.02  -0.03   0.01    -0.11   0.02   0.06    -0.04  -0.06  -0.25
    25   1    -0.05  -0.09   0.02    -0.18   0.02   0.06     0.28  -0.07  -0.27
    26   1     0.05  -0.03   0.07    -0.09   0.03   0.08    -0.13  -0.10  -0.37
    27   1    -0.08  -0.05  -0.02    -0.07   0.03   0.09    -0.18  -0.10  -0.38
    28   6    -0.03   0.06   0.07     0.09  -0.16   0.05    -0.05  -0.14  -0.03
    29   1    -0.11   0.04   0.08    -0.21  -0.26   0.06    -0.13  -0.18  -0.05
    30   1     0.17   0.13   0.10     0.15  -0.20   0.08    -0.17  -0.20  -0.04
    31   1    -0.14   0.08   0.19     0.30  -0.27   0.16     0.13  -0.21  -0.06
                     16                     17                     18
                      A                      A                      A
 Frequencies --    287.7342               308.9913               340.7000
 Red. masses --      6.3077                 4.7170                10.0358
 Frc consts  --      0.3077                 0.2653                 0.6863
 IR Inten    --     21.1789                12.5037                12.7942
  Atom  AN      X      Y      Z        X      Y      Z        X      Y      Z
     1   6    -0.03  -0.03   0.00     0.03   0.02   0.01     0.00  -0.01  -0.04
     2   6     0.01   0.05  -0.15     0.01   0.00   0.07    -0.04  -0.05   0.02
     3   6    -0.01   0.01  -0.03     0.01  -0.02   0.01    -0.03  -0.02   0.02
     4   6     0.03   0.15  -0.09     0.01  -0.07   0.03     0.00   0.00   0.02
     5   1    -0.02   0.02   0.02     0.04   0.01   0.01     0.01   0.06  -0.05
     6   1     0.04   0.25  -0.18     0.02  -0.12   0.07    -0.01   0.03   0.00
     7   6     0.03  -0.10  -0.09     0.00   0.05   0.04    -0.03   0.10   0.04
     8   1     0.02  -0.21   0.03    -0.01   0.12  -0.03     0.03   0.25  -0.12
     9   1     0.08  -0.19  -0.21    -0.01   0.10   0.11    -0.05   0.23   0.23
    10   6    -0.04   0.26   0.05     0.03  -0.10  -0.01    -0.02   0.00   0.06
    11   1    -0.06   0.25   0.01     0.03  -0.09   0.00    -0.02   0.02   0.09
    12   6    -0.02   0.16   0.05     0.02  -0.07  -0.02    -0.02   0.00   0.05
    13   1    -0.09   0.17   0.12     0.04  -0.08  -0.05    -0.01   0.01   0.06
    14   1     0.04   0.09  -0.17    -0.01   0.00   0.09    -0.06  -0.12   0.03
    15   1     0.00  -0.03   0.00     0.01  -0.02  -0.01    -0.05  -0.06   0.00
    16   7    -0.01  -0.16   0.13     0.06   0.02  -0.04    -0.04   0.54   0.00
    17   7    -0.02  -0.16   0.10    -0.07   0.00  -0.13     0.04  -0.11  -0.16
    18   6     0.00  -0.05   0.04     0.09   0.00  -0.03    -0.05   0.20   0.00
    19   6     0.00  -0.08   0.03    -0.10   0.06  -0.06     0.05  -0.18  -0.06
    20   8     0.27   0.00  -0.02     0.04   0.09   0.07     0.41  -0.08   0.01
    21   8    -0.17   0.02  -0.09     0.04   0.00  -0.08    -0.06  -0.10   0.04
    22   8    -0.07   0.00  -0.03    -0.18   0.10   0.08    -0.04  -0.11   0.00
    23   8     0.07   0.05  -0.01     0.14   0.01  -0.06    -0.08  -0.11   0.06
    24   6     0.05   0.00   0.12     0.12   0.03   0.14    -0.07   0.01  -0.07
    25   1    -0.07  -0.02   0.13    -0.07   0.02   0.15     0.04   0.07  -0.09
    26   1     0.13   0.01   0.19     0.19   0.05   0.22    -0.18   0.01  -0.15
    27   1     0.05  -0.01   0.16     0.18   0.04   0.21    -0.03   0.03  -0.08
    28   6    -0.09  -0.10  -0.01    -0.24  -0.14  -0.04    -0.03  -0.04  -0.01
    29   1    -0.16  -0.13  -0.01    -0.31  -0.20  -0.07     0.00  -0.04  -0.02
    30   1    -0.10  -0.13   0.00    -0.40  -0.22  -0.06    -0.03  -0.04  -0.01
    31   1     0.00  -0.14   0.00     0.01  -0.24  -0.10    -0.07  -0.03  -0.03
                     19                     20                     21
                      A                      A                      A
 Frequencies --    405.7211               433.6735               492.3438
 Red. masses --      2.0089                 8.4854                 3.1065
 Frc consts  --      0.1948                 0.9403                 0.4437
 IR Inten    --     10.4628                 9.9272                 8.1831
  Atom  AN      X      Y      Z        X      Y      Z        X      Y      Z
     1   6    -0.02  -0.02  -0.05    -0.04  -0.05  -0.02    -0.03  -0.01   0.03
     2   6    -0.01  -0.09  -0.02     0.00  -0.03  -0.04     0.02   0.20   0.11
     3   6    -0.02  -0.12  -0.02    -0.02  -0.07  -0.01    -0.02  -0.09  -0.01
     4   6     0.02   0.04  -0.08     0.00   0.05  -0.06    -0.01   0.08  -0.08
     5   1     0.01  -0.01  -0.03    -0.06  -0.10  -0.01    -0.01  -0.07   0.04
     6   1     0.03   0.13  -0.17     0.01   0.16  -0.15     0.03   0.19  -0.20
     7   6     0.03   0.17   0.01     0.01   0.04  -0.02    -0.03   0.00   0.02
     8   1     0.09   0.50  -0.35     0.03   0.17  -0.15    -0.27  -0.06   0.10
     9   1     0.06   0.41   0.38     0.04   0.13   0.13     0.12  -0.10  -0.05
    10   6     0.00  -0.01   0.05     0.00   0.01   0.01     0.03  -0.18  -0.17
    11   1    -0.01   0.00   0.05    -0.01  -0.02  -0.03     0.01  -0.40  -0.45
    12   6    -0.01   0.03   0.09     0.00   0.04   0.08     0.01   0.07   0.11
    13   1    -0.01   0.10   0.21     0.00   0.11   0.17     0.03   0.22   0.33
    14   1    -0.03  -0.18  -0.03     0.00  -0.06  -0.04     0.02   0.22   0.10
    15   1    -0.04  -0.26  -0.03    -0.03  -0.14  -0.01    -0.04  -0.15  -0.02
    16   7     0.00  -0.07  -0.02     0.02   0.10   0.23     0.00  -0.04  -0.04
    17   7    -0.02  -0.02  -0.02     0.11   0.01   0.30     0.02   0.11   0.02
    18   6     0.00  -0.02   0.02     0.08  -0.03  -0.21     0.00   0.01   0.01
    19   6     0.00   0.02  -0.01    -0.01  -0.06   0.17     0.00  -0.05   0.00
    20   8    -0.02   0.01   0.01    -0.02  -0.03  -0.08     0.07  -0.03   0.00
    21   8    -0.03   0.01  -0.01     0.40   0.02   0.02    -0.03  -0.01   0.00
    22   8     0.03   0.00   0.01    -0.13   0.06  -0.07    -0.01  -0.04  -0.01
    23   8     0.01   0.01   0.01    -0.08  -0.03  -0.18     0.00   0.00   0.02
    24   6     0.01   0.00   0.01    -0.14  -0.02  -0.09     0.00   0.00   0.00
    25   1     0.01   0.00   0.01    -0.18  -0.02  -0.09     0.02   0.00   0.00
    26   1     0.02   0.00   0.01    -0.10  -0.02  -0.07    -0.01   0.00  -0.01
    27   1     0.01  -0.01   0.01    -0.10  -0.01  -0.07     0.00   0.00   0.00
    28   6     0.04   0.01   0.00    -0.19  -0.04   0.00    -0.02   0.00   0.00
    29   1     0.05   0.02   0.00    -0.28  -0.08   0.00     0.00   0.00   0.00
    30   1     0.03   0.02   0.00    -0.18  -0.07   0.01     0.00   0.00   0.00
    31   1     0.02   0.02   0.00    -0.05  -0.10   0.03    -0.04   0.01   0.00
                     22                     23                     24
                      A                      A                      A
 Frequencies --    535.6225               568.7986               602.8281
 Red. masses --      6.7636                 7.4601                 7.3608
 Frc consts  --      1.1433                 1.4220                 1.5760
 IR Inten    --     31.2823                49.7000                51.5899
  Atom  AN      X      Y      Z        X      Y      Z        X      Y      Z
     1   6     0.00   0.12  -0.15     0.00   0.08  -0.11     0.05  -0.10   0.08
     2   6     0.00  -0.10   0.00     0.00   0.02   0.04    -0.03  -0.05  -0.07
     3   6     0.02   0.03   0.01     0.02   0.00   0.00    -0.05   0.03   0.01
     4   6    -0.07  -0.05   0.00    -0.03  -0.02   0.00     0.06   0.02   0.05
     5   1    -0.06   0.16  -0.22    -0.06   0.10  -0.16     0.06  -0.07   0.08
     6   1    -0.14  -0.13   0.13    -0.08  -0.08   0.09     0.12   0.08  -0.05
     7   6     0.03   0.01  -0.01     0.00   0.01   0.01    -0.04   0.00  -0.03
     8   1     0.15   0.10  -0.11    -0.01   0.02   0.01     0.02  -0.01  -0.03
     9   1    -0.06   0.12   0.12    -0.01   0.02   0.03    -0.04   0.00  -0.04
    10   6     0.01   0.01   0.09     0.02  -0.02   0.03    -0.02   0.00  -0.07
    11   1     0.03   0.22   0.35     0.03   0.07   0.13    -0.04  -0.11  -0.20
    12   6    -0.01  -0.08  -0.07     0.01  -0.03  -0.02    -0.01   0.07   0.08
    13   1     0.03  -0.12  -0.17     0.03  -0.03  -0.04    -0.04   0.07   0.11
    14   1    -0.01  -0.22  -0.04    -0.01  -0.05   0.02    -0.04   0.09   0.02
    15   1     0.04   0.10   0.05     0.02   0.01   0.01    -0.06  -0.01  -0.04
    16   7    -0.01  -0.15  -0.17     0.30  -0.01   0.20     0.10   0.01  -0.14
    17   7     0.17   0.40   0.15     0.06   0.10   0.01     0.25  -0.17  -0.07
    18   6    -0.02   0.13   0.03     0.21  -0.22   0.09     0.09   0.19   0.04
    19   6     0.01  -0.12   0.15     0.06   0.01  -0.28     0.21  -0.02   0.20
    20   8     0.12  -0.06  -0.05     0.01  -0.05   0.08    -0.18  -0.10  -0.08
    21   8    -0.08  -0.05   0.01    -0.09   0.04  -0.19    -0.12  -0.07  -0.08
    22   8    -0.08  -0.04  -0.06    -0.04   0.00   0.07    -0.04   0.25  -0.01
    23   8     0.02  -0.03   0.06    -0.17   0.08   0.15    -0.05  -0.01   0.16
    24   6     0.04   0.01   0.02    -0.19  -0.02  -0.10    -0.02   0.00  -0.01
    25   1     0.06   0.02   0.02     0.22  -0.04  -0.13     0.22   0.01  -0.03
    26   1     0.00   0.01   0.00    -0.28  -0.06  -0.23    -0.11  -0.02  -0.10
    27   1     0.04   0.01   0.02    -0.32  -0.06  -0.25    -0.08  -0.02  -0.09
    28   6    -0.13  -0.01   0.00    -0.07  -0.01   0.00    -0.12  -0.01   0.00
    29   1    -0.14  -0.02   0.00    -0.06  -0.02  -0.01    -0.30  -0.11  -0.02
    30   1    -0.09  -0.02   0.01    -0.11  -0.03  -0.01    -0.26  -0.11  -0.02
    31   1    -0.10  -0.03   0.02     0.00  -0.03  -0.03     0.28  -0.19  -0.01
                     25                     26                     27
                      A                      A                      A
 Frequencies --    642.0535               659.2542               672.1118
 Red. masses --      4.7511                10.8138                 5.9877
 Frc consts  --      1.1540                 2.7691                 1.5936
 IR Inten    --     20.1787                26.4497                13.9316
  Atom  AN      X      Y      Z        X      Y      Z        X      Y      Z
     1   6    -0.22   0.06  -0.08    -0.07   0.00   0.20     0.09   0.05  -0.03
     2   6     0.04   0.24   0.07     0.06  -0.05  -0.05     0.06   0.00  -0.15
     3   6     0.01  -0.18  -0.02    -0.05  -0.06  -0.04    -0.27  -0.04  -0.02
     4   6    -0.21  -0.04  -0.04    -0.07   0.00   0.00    -0.01  -0.14   0.30
     5   1    -0.37   0.08  -0.16    -0.11  -0.08   0.18    -0.15   0.01  -0.19
     6   1    -0.31   0.07  -0.04     0.05   0.08  -0.16     0.08  -0.13   0.21
     7   6     0.03   0.01   0.02     0.03  -0.05  -0.08    -0.15   0.02  -0.24
     8   1    -0.29   0.04   0.01     0.01   0.03  -0.17    -0.13   0.07  -0.31
     9   1     0.30  -0.05   0.03     0.11   0.02   0.02    -0.03   0.02  -0.21
    10   6     0.17   0.11   0.12     0.04   0.05  -0.01     0.20   0.08  -0.08
    11   1     0.22   0.18   0.25     0.03   0.02  -0.03     0.12   0.09  -0.19
    12   6     0.16  -0.13  -0.06     0.04  -0.01  -0.01     0.13  -0.01   0.26
    13   1     0.21  -0.08  -0.03     0.04  -0.01  -0.01     0.15  -0.04   0.20
    14   1     0.02   0.01   0.00     0.07   0.03  -0.02    -0.08  -0.07   0.08
    15   1     0.06   0.05   0.03    -0.02   0.05   0.02    -0.29   0.07  -0.16
    16   7    -0.01   0.01  -0.02     0.03  -0.20   0.12    -0.01   0.01  -0.01
    17   7     0.03  -0.13  -0.03    -0.06   0.02   0.15     0.00   0.05   0.01
    18   6    -0.01   0.03   0.00     0.01   0.63  -0.13    -0.03  -0.07   0.01
    19   6     0.04   0.00   0.07     0.01   0.08  -0.45    -0.02   0.00  -0.02
    20   8    -0.04  -0.02  -0.02    -0.01   0.00   0.12     0.02   0.01   0.01
    21   8    -0.01  -0.01   0.01     0.05  -0.18  -0.01     0.00   0.02   0.02
    22   8     0.00   0.05   0.00     0.00   0.01   0.09     0.00  -0.03   0.00
    23   8     0.00   0.00   0.01    -0.01  -0.12   0.01     0.01   0.01  -0.02
    24   6     0.01   0.00   0.00    -0.04  -0.01  -0.01     0.01   0.00   0.00
    25   1     0.01   0.00   0.00     0.00   0.03  -0.02    -0.03   0.00   0.01
    26   1     0.01   0.00   0.01    -0.06  -0.01  -0.04     0.02   0.00   0.02
    27   1     0.01   0.00   0.00    -0.02  -0.01  -0.01     0.02   0.00   0.01
    28   6     0.01   0.00   0.00     0.02   0.00   0.00     0.00   0.00   0.00
    29   1    -0.03  -0.02   0.00     0.02   0.00   0.00     0.02   0.01   0.00
    30   1    -0.02  -0.02   0.00    -0.01  -0.01   0.00     0.02   0.01   0.00
    31   1     0.08  -0.03   0.00     0.03   0.00  -0.03    -0.04   0.02   0.00
                     28                     29                     30
                      A                      A                      A
 Frequencies --    717.7156               741.6521               744.1071
 Red. masses --      5.9273                 7.2675                 5.8022
 Frc consts  --      1.7989                 2.3552                 1.8929
 IR Inten    --     74.3221               126.1467                44.4426
  Atom  AN      X      Y      Z        X      Y      Z        X      Y      Z
     1   6    -0.09   0.09   0.35     0.02   0.00  -0.13    -0.04   0.09   0.27
     2   6     0.28  -0.12   0.09     0.14   0.07   0.09    -0.18  -0.13  -0.14
     3   6    -0.12  -0.01  -0.12    -0.05   0.10  -0.04     0.04  -0.17   0.05
     4   6    -0.16   0.03  -0.04     0.02  -0.05   0.01    -0.06   0.06   0.04
     5   1    -0.11   0.02   0.31    -0.01   0.02  -0.15     0.07  -0.05   0.36
     6   1     0.10   0.01  -0.26    -0.01  -0.08   0.06     0.06   0.09  -0.10
     7   6     0.16  -0.04  -0.24     0.02   0.05  -0.10    -0.04  -0.10   0.12
     8   1     0.10   0.07  -0.35    -0.04  -0.05   0.02     0.03   0.09  -0.10
     9   1     0.10   0.02  -0.18    -0.05  -0.03  -0.23     0.11   0.05   0.39
    10   6    -0.06  -0.07   0.11    -0.04  -0.08   0.12     0.10   0.14  -0.20
    11   1    -0.14  -0.09  -0.02    -0.13  -0.02   0.01     0.24   0.00  -0.10
    12   6    -0.07   0.02  -0.05    -0.08   0.00   0.07     0.13  -0.01  -0.12
    13   1     0.09   0.05  -0.12     0.04  -0.01  -0.05    -0.06  -0.03   0.02
    14   1     0.33   0.01   0.05     0.12  -0.03   0.05    -0.17  -0.01  -0.09
    15   1    -0.03   0.04   0.14    -0.06  -0.01  -0.01     0.07   0.07   0.01
    16   7     0.02   0.09  -0.05     0.09  -0.09   0.07     0.07   0.03  -0.02
    17   7     0.02   0.05  -0.03    -0.13  -0.10  -0.11    -0.05   0.07  -0.06
    18   6     0.00  -0.13   0.03     0.20   0.21  -0.05     0.10  -0.01   0.00
    19   6     0.02  -0.01   0.03    -0.22   0.03   0.31    -0.10   0.01   0.16
    20   8     0.01  -0.01  -0.01     0.01   0.17  -0.04     0.02   0.09  -0.02
    21   8    -0.01   0.03  -0.01     0.06  -0.08  -0.15     0.02  -0.01  -0.09
    22   8    -0.01   0.00  -0.01     0.00  -0.16  -0.07    -0.01  -0.10  -0.04
    23   8     0.00   0.03   0.01    -0.05  -0.01   0.13    -0.03   0.02   0.07
    24   6     0.00   0.00   0.00    -0.04   0.00   0.00    -0.02   0.00   0.00
    25   1     0.02   0.00   0.00     0.28   0.00  -0.03     0.17   0.00  -0.02
    26   1     0.00   0.00   0.00    -0.12  -0.03  -0.11    -0.07  -0.02  -0.06
    27   1     0.00   0.00  -0.01    -0.13  -0.03  -0.11    -0.07  -0.01  -0.06
    28   6    -0.02   0.00   0.00     0.05  -0.02   0.00     0.00  -0.01   0.00
    29   1    -0.02   0.00   0.00     0.20   0.07   0.01     0.10   0.04   0.00
    30   1    -0.02   0.00   0.00     0.17   0.09   0.00     0.08   0.05   0.00
    31   1     0.00  -0.01   0.00    -0.32   0.15   0.03    -0.22   0.09   0.02
                     31                     32                     33
                      A                      A                      A
 Frequencies --    865.6663               868.7055               878.9266
 Red. masses --      1.6934                 1.6723                 1.5783
 Frc consts  --      0.7477                 0.7436                 0.7183
 IR Inten    --      2.1387                37.9670                85.4207
  Atom  AN      X      Y      Z        X      Y      Z        X      Y      Z
     1   6     0.03  -0.01   0.02    -0.01   0.00   0.01     0.08  -0.04  -0.05
     2   6    -0.02   0.01  -0.03     0.00   0.00   0.02     0.02   0.04   0.02
     3   6     0.01   0.08   0.02     0.13  -0.03  -0.11    -0.05  -0.03   0.03
     4   6    -0.05  -0.08  -0.13    -0.04  -0.08   0.04    -0.02   0.07   0.06
     5   1     0.23   0.00   0.17    -0.02   0.06  -0.01    -0.02  -0.01  -0.13
     6   1     0.04   0.03  -0.27    -0.17  -0.42   0.42     0.02   0.23  -0.10
     7   6     0.00   0.02   0.00    -0.01  -0.04  -0.02    -0.02  -0.11  -0.01
     8   1     0.06  -0.01   0.03    -0.10   0.11  -0.17     0.01   0.24  -0.35
     9   1    -0.03   0.01  -0.04    -0.11   0.08   0.12     0.08   0.15   0.37
    10   6     0.00   0.01  -0.02    -0.06   0.01   0.01    -0.07  -0.05  -0.01
    11   1    -0.10   0.26   0.10     0.00  -0.04   0.03    -0.03   0.16   0.27
    12   6     0.01  -0.13   0.10     0.02   0.12  -0.01     0.04   0.02  -0.05
    13   1    -0.06   0.10   0.50    -0.03   0.41   0.50     0.08  -0.02  -0.14
    14   1    -0.01   0.10   0.00     0.03   0.10  -0.01     0.11   0.46   0.04
    15   1     0.10   0.64   0.06     0.13   0.12  -0.13     0.03   0.41   0.08
    16   7     0.00   0.01   0.00     0.00   0.00   0.00     0.00  -0.01   0.01
    17   7     0.00   0.01   0.00     0.00  -0.01   0.00    -0.01  -0.01  -0.01
    18   6     0.00  -0.01   0.00     0.00   0.01   0.01     0.00   0.00   0.01
    19   6     0.00   0.00   0.00     0.00   0.00   0.00     0.00   0.00   0.01
    20   8     0.00   0.00   0.00     0.00   0.00   0.00     0.00   0.00   0.00
    21   8     0.00   0.00   0.00     0.00   0.00   0.01     0.00   0.00   0.01
    22   8     0.00   0.00   0.00     0.00   0.00   0.00     0.00   0.00   0.00
    23   8     0.00   0.00   0.00     0.00   0.00  -0.01     0.00   0.00  -0.01
    24   6     0.00   0.00   0.00     0.00   0.00   0.00    -0.01   0.00  -0.01
    25   1     0.02   0.00   0.00    -0.03   0.00   0.00    -0.04   0.00   0.00
    26   1     0.00   0.00   0.00     0.00   0.00   0.01     0.00   0.00   0.01
    27   1     0.00   0.00   0.00     0.00   0.00   0.01     0.00   0.00   0.01
    28   6     0.00   0.00   0.00     0.00   0.00   0.00     0.01   0.00   0.00
    29   1     0.00   0.00   0.00     0.00   0.00   0.00     0.00   0.00   0.00
    30   1     0.00   0.00   0.00     0.00   0.00   0.00     0.00   0.00   0.00
    31   1    -0.01   0.00   0.00     0.00   0.00   0.00     0.01   0.00   0.00
                     34                     35                     36
                      A                      A                      A
 Frequencies --    913.8408               921.5567               933.3509
 Red. masses --      1.3228                 3.6345                 2.9536
 Frc consts  --      0.6509                 1.8186                 1.5160
 IR Inten    --     52.3228                71.9712                30.3667
  Atom  AN      X      Y      Z        X      Y      Z        X      Y      Z
     1   6     0.01  -0.06   0.03    -0.03  -0.01  -0.02    -0.03  -0.02   0.02
     2   6    -0.01   0.00  -0.02     0.00   0.01   0.00    -0.01  -0.01  -0.01
     3   6    -0.03  -0.01   0.03     0.06   0.00  -0.06     0.04  -0.01  -0.05
     4   6     0.00   0.06   0.01     0.01  -0.08   0.03     0.00  -0.07   0.03
     5   1    -0.01  -0.13   0.03    -0.17  -0.09  -0.08    -0.17  -0.04  -0.08
     6   1    -0.08  -0.05   0.17     0.08   0.18  -0.23     0.11   0.21  -0.28
     7   6     0.01   0.06  -0.04     0.00  -0.01   0.04     0.02   0.04   0.04
     8   1     0.02  -0.11   0.13    -0.04   0.04  -0.02    -0.04  -0.06   0.13
     9   1     0.05  -0.08  -0.21    -0.07   0.03   0.06    -0.02  -0.04  -0.09
    10   6     0.02  -0.06  -0.05    -0.06   0.01   0.01    -0.05  -0.02  -0.02
    11   1     0.11   0.42   0.62    -0.08  -0.02  -0.05    -0.03   0.16   0.20
    12   6    -0.01  -0.01  -0.05     0.03   0.05   0.06     0.03   0.04   0.04
    13   1     0.04   0.20   0.26     0.03  -0.11  -0.21     0.06  -0.04  -0.12
    14   1    -0.01   0.15   0.04     0.07   0.11  -0.09     0.06   0.12  -0.08
    15   1    -0.07  -0.34   0.03     0.05   0.10  -0.12     0.01  -0.05  -0.10
    16   7    -0.02   0.01  -0.01    -0.16   0.05  -0.09     0.09   0.01  -0.03
    17   7     0.00   0.00   0.01     0.06  -0.04   0.11     0.16  -0.05   0.01
    18   6     0.00  -0.01  -0.02    -0.03  -0.08  -0.13    -0.02   0.01   0.06
    19   6     0.00   0.00  -0.01     0.00   0.04  -0.10     0.03   0.10  -0.02
    20   8     0.00   0.01   0.00    -0.01   0.03   0.02    -0.03   0.11   0.02
    21   8     0.01   0.00  -0.02     0.07  -0.01  -0.11    -0.06   0.01   0.07
    22   8     0.00  -0.01   0.00     0.01  -0.04   0.01     0.05  -0.12  -0.01
    23   8    -0.01   0.01   0.03    -0.08   0.04   0.15     0.04  -0.01  -0.06
    24   6     0.02   0.00   0.02     0.16   0.02   0.12    -0.06  -0.01  -0.05
    25   1     0.11   0.00   0.01     0.67   0.02   0.04    -0.33  -0.01  -0.01
    26   1    -0.01   0.00  -0.02    -0.07  -0.03  -0.12     0.05   0.02   0.07
    27   1    -0.01   0.00  -0.02    -0.03   0.00  -0.12     0.05   0.01   0.07
    28   6     0.00   0.00   0.00    -0.04  -0.01  -0.01    -0.16  -0.05  -0.01
    29   1     0.00   0.00   0.00     0.01   0.03   0.02     0.10   0.09   0.03
    30   1     0.01   0.00   0.00     0.07   0.02   0.01     0.11   0.09   0.01
    31   1    -0.03   0.01   0.00    -0.17   0.05   0.01    -0.57   0.16   0.02
                     37                     38                     39
                      A                      A                      A
 Frequencies --    946.8559               984.4864               999.1645
 Red. masses --      2.3466                 1.4928                 1.2830
 Frc consts  --      1.2395                 0.8524                 0.7546
 IR Inten    --     41.2571                 3.5155                 9.4803
  Atom  AN      X      Y      Z        X      Y      Z        X      Y      Z
     1   6     0.04  -0.02  -0.01    -0.06   0.00   0.03     0.00  -0.02  -0.01
[...]
 0.00007492,-0.00032112,-0.00031675,-0.00008411,-0.00000382,0.00009306,
 -0.00007323,0.00000256,-0.00002716,0.00001678,-0.00003656,0.00003808,-
 0.00005339,0.00003020,-0.00001687,0.00005073,-0.00000949,-0.00000752,0
 .00131207,-0.00001627,-0.00047275,-0.00062857,-0.00075441,0.00097245,-
 0.00238358,-0.00058738,-0.00376758,-0.00017812,0.00014147,0.00010277,0
 .00014525,-0.00016095,-0.00004913,-0.00015507,0.00022339,0.00136760,0.
 00015004,-0.00004937,-0.00001075,-0.01697069,-0.00336650,-0.01275914,-
 0.00863354,-0.03309719,-0.20933027,0.02129004,0.04170862,0.25223384,0.
 00015610,0.00091302,-0.00006584,-0.00000381,-0.00017678,-0.00001523,-0
 .00002184,0.00002820,0.00001317,-0.00000907,0.00002319,-0.00001972,-0.
 00001641,-0.00004918,0.00006922,-0.00002794,-0.00000946,0.00002752,0.0
 0000454,0.00001225,0.00003565,-0.00000533,-0.00001015,-0.00001161,-0.0
 0000250,-0.00000029,-0.00001367,0.00005187,-0.00019620,-0.00020287,-0.
 00004730,0.00000254,0.00005504,-0.00005373,-0.00002086,-0.00000996,0.0
 0000640,-0.00001950,0.00001507,-0.00002709,0.00001875,-0.00000663,0.00
 001870,-0.00000715,-0.00000083,0.00098074,0.00062769,-0.00043637,-0.00
 034988,-0.00031975,0.00070867,-0.00261039,-0.00252030,0.00064325,0.000
 04080,-0.00007741,-0.00005015,0.00007783,-0.00005432,-0.00000628,0.000
 16971,0.00012343,0.00064446,0.00002433,-0.00002335,0.00000080,-0.03519
 514,-0.02254320,0.00977915,-0.05541846,-0.04616302,0.03305871,0.003533
 23,-0.00141341,0.00330840,0.08284980,0.00021472,0.00130419,-0.00012224
 ,-0.00000571,-0.00027070,-0.00001671,-0.00004055,0.00001992,0.00001276
 ,-0.00004815,0.00005735,-0.00004092,-0.00003317,-0.00007151,0.00011429
 ,0.00000515,-0.00001294,0.00005530,0.00000708,0.00003205,0.00007141,-0
 .00000719,-0.00001698,-0.00002198,-0.00000099,-0.00000189,-0.00002991,
 0.00007730,-0.00029742,-0.00030345,-0.00007609,-0.00000017,0.00008544,
 -0.00007345,-0.00000834,-0.00003215,0.00001435,-0.00003145,0.00003241,
 -0.00004476,0.00002553,-0.00001347,0.00003770,-0.00000926,-0.00000490,
 0.00130327,0.00004797,-0.00034676,-0.00058268,-0.00070396,0.00087512,-
 0.00291998,-0.00047543,-0.00262181,-0.00013437,0.00009846,0.00007355,0
 .00012387,-0.00012858,-0.00004158,0.00039424,0.00006861,0.00060790,0.0
 0012819,-0.00004324,-0.00000559,-0.00907707,-0.00126297,0.00310630,-0.
 05271946,-0.13755009,0.07452103,-0.00003232,0.00318404,0.00309029,0.06
 745365,0.15894489,-0.00007261,-0.00045312,0.00004525,0.00000349,0.0001
 0209,0.00000821,0.00001906,0.00001086,-0.00000489,0.00001470,-0.000037
 12,0.00000250,0.00001305,0.00002542,-0.00004117,0.00000179,0.00001005,
 -0.00001386,-0.00000046,-0.00001265,-0.00003292,0.00000300,0.00000644,
 0.00000908,0.00000012,-0.00000100,0.00001371,-0.00002548,0.00010050,0.
 00011485,0.00002839,0.00000134,-0.00003021,0.00001855,-0.00000549,0.00
 002054,-0.00000644,0.00001229,-0.00001377,0.00001706,-0.00000876,0.000
 00556,-0.00001417,0.00000334,0.00000135,-0.00038764,0.00027157,-0.0001
 9330,0.00024004,0.00030149,-0.00020023,-0.00134353,-0.00084989,0.00305
 208,0.00010922,-0.00010025,-0.00007546,-0.00003899,0.00005694,0.000024
 02,0.00079823,0.00018593,-0.00030089,-0.00005783,0.00001543,0.00000120
 ,-0.00084173,-0.00209223,0.00233559,0.03960923,0.07669717,-0.08959256,
 0.00764657,0.01629055,-0.01871731,-0.04498112,-0.09015189,0.09894094,0
 .00006613,0.00032635,-0.00005343,0.00000750,-0.00007753,-0.00000058,-0
 .00000693,-0.00000352,-0.00000053,0.00001835,0.00007986,-0.00000990,-0
 .00000938,-0.00001685,0.00003866,-0.00027283,-0.00018197,0.00013314,0.
 00000991,0.00003334,0.00003802,-0.00000124,-0.00001055,-0.00001142,-0.
 00000435,-0.00000640,-0.00002076,0.00001001,-0.00007449,-0.00008387,-0
 .00002459,-0.00000608,0.00002430,0.00000153,0.00003488,-0.00002716,0.0
 0001169,-0.00001540,0.00001779,-0.00001921,0.00000612,-0.00000905,0.00
 002230,0.00000482,0.00000395,0.00102733,-0.00071573,0.00063152,-0.0003
 0721,-0.00025326,0.00000915,-0.00270688,0.00275577,-0.00074354,-0.0001
 2026,0.00013680,0.00006274,0.00004899,-0.00005999,-0.00001521,-0.00000
 879,0.00019014,0.00054159,0.00009066,-0.00002334,-0.00000221,-0.036436
 53,0.02329518,0.00120964,-0.05927538,0.05890910,0.01510599,0.00338459,
 0.00272694,0.00276934,0.00588344,-0.00394210,-0.00076105,0.08862455,-0
 .00021485,-0.00129780,0.00011507,0.00000296,0.00027458,0.00001524,0.00
 001322,-0.00000581,0.00000888,0.00008197,-0.00000808,0.00000494,0.0000
 3419,0.00007186,-0.00011376,-0.00010202,-0.00006022,0.00001974,-0.0000
 1626,-0.00003394,-0.00006904,0.00000850,0.00001654,0.00002282,0.000002
 70,0.00000005,0.00003153,-0.00006616,0.00028533,0.00030429,0.00007495,
 0.00000328,-0.00008291,0.00007078,0.00000537,0.00001407,-0.00000795,0.
 00003448,-0.00002521,0.00004570,-0.00002545,0.00001361,0.00004481,0.00
 006956,0.00003386,-0.00120557,-0.00015129,0.00032830,0.00055571,0.0006
 9052,-0.00086373,0.00197092,0.00117678,0.00322943,0.00015140,-0.000111
 33,-0.00008482,-0.00013203,0.00014230,0.00004614,0.00004557,-0.0003793
 0,-0.00059892,-0.00012537,0.00004253,0.00000770,0.00704210,-0.00012027
 ,-0.00173497,0.06733501,-0.17817232,-0.03792765,0.00310067,-0.00611182
 ,-0.00790587,0.00439870,-0.02292708,-0.00036724,-0.08313171,0.20661574
 ,-0.00004214,-0.00020761,0.00001525,-0.00000021,0.00004466,0.00000875,
 0.00001297,0.00004886,-0.00000288,0.00000289,-0.00004260,-0.00002653,0
 .00000393,0.00001080,-0.00002359,0.00011387,0.00010534,-0.00007166,0.0
 0000484,-0.00000283,-0.00001533,0.00000224,0.00000432,0.00000399,0.000
 00483,-0.00000518,0.00000505,-0.00000629,0.00003088,0.00006378,0.00001
 471,0.00000222,-0.00001621,-0.00001175,-0.00001695,0.00002924,-0.00000
 895,0.00000822,-0.00001389,0.00000876,-0.00000544,0.00000199,0.0000277
 6,0.00003514,-0.00000482,0.00012459,-0.00025674,0.00011914,0.00002786,
 0.00004223,-0.00016043,-0.00230313,0.00141373,0.00143642,0.00002336,0.
 00002377,-0.00000275,-0.00002160,0.00002274,0.00000573,0.00069074,-0.0
 0016208,0.00013725,0.00000074,0.00000131,-0.00000183,-0.00403491,0.003
 10473,0.00220146,0.01904552,-0.04003444,-0.04477324,0.00771362,-0.0208
 5129,-0.00933290,-0.00254757,0.01110355,0.00463688,-0.01884821,0.04558
 170,0.04577755,-0.00014774,-0.00050061,0.00031367,-0.00017499,0.000295
 07,-0.00020240,0.00012946,-0.00004802,-0.00000834,0.00025636,-0.000087
 40,0.00008724,-0.00012530,0.00024121,-0.00030713,-0.00000555,-0.000035
 24,-0.00011315,0.00000836,-0.00007855,-0.00014932,0.00002485,0.0000567
 0,0.00006945,-0.00000442,-0.00001481,0.00010236,-0.00033674,0.00042969
 ,0.00026189,0.00018558,0.00005070,-0.00014489,0.00007123,0.00007349,0.
 00008690,-0.00002817,0.00008413,-0.00005754,-0.00033039,0.00054433,0.0
 0032487,-0.00007702,0.00002127,0.00002167,0.00033149,0.00007785,0.0000
 8253,0.00180453,0.00023400,-0.00011128,-0.00101784,-0.00023990,0.00004
 724,-0.05152253,-0.03781986,-0.00566512,-0.00209940,0.00501798,0.00044
 142,0.00049366,0.00004243,-0.00025152,-0.18357094,0.05154973,0.0063171
 3,0.00046336,0.00008728,0.00008367,-0.00010362,0.00002516,0.00010280,0
 .00004382,-0.00000665,-0.00003149,-0.00001091,-0.00002713,0.00001100,-
 0.00001702,0.00002788,0.00000193,0.37032366,0.00118170,0.00479988,0.00
 010616,0.00011606,-0.00123320,-0.00038277,-0.00009166,0.00006224,0.000
 04204,-0.00012746,0.00000452,-0.00011152,-0.00025361,-0.00021059,0.000
 34859,0.00006517,0.00000821,0.00013645,0.00002925,0.00008330,0.0002936
 6,-0.00002220,-0.00003149,-0.00006166,0.00001860,0.00001543,-0.0000690
 8,0.00018465,-0.00093763,-0.00111291,-0.00023115,0.00004080,0.00031192
 ,-0.00026937,-0.00005017,-0.00003612,0.00004018,-0.00009969,0.00010313
 ,-0.00016142,0.00021438,0.00003902,0.00009254,-0.00002877,-0.00000305,
 0.00100261,-0.00038767,-0.00191609,-0.00698660,-0.00674332,0.00134010,
 0.00011016,0.00071818,-0.00027642,-0.02926581,0.01123386,0.00143905,-0
 .00261231,-0.00415822,-0.00031365,-0.00066439,-0.00006804,0.00028078,0
 .06168074,-0.06928048,-0.00481184,-0.00065518,-0.00015516,0.00006000,0
 .00014458,-0.00007572,-0.00012994,-0.00005725,0.00000971,0.00004039,0.
 00000613,0.00003616,-0.00001511,0.00002454,-0.00003172,0.00000134,0.00
 020404,0.41919224,-0.00039494,-0.00028434,-0.00018509,0.00020888,-0.00
 019263,0.00007288,0.00002079,0.00000141,-0.00003280,-0.00003647,0.0000
 2474,0.00001235,-0.00008718,0.00008285,0.00000869,-0.00001549,0.000005
 03,-0.00000301,0.00001877,-0.00000966,-0.00004345,0.00001535,0.0000061
 0,0.00001896,0.00001431,-0.00002550,0.00002471,-0.00000100,0.00005401,
 0.00008163,0.00001656,-0.00000138,-0.00000963,0.00001541,-0.00000852,-
 0.00001089,-0.00000210,0.00001083,-0.00000643,0.00004817,0.00003865,0.
 00006848,-0.00001282,0.00000281,0.00000323,-0.00187782,0.00052580,-0.0
 0151954,0.00156100,-0.00182737,0.00628998,0.00011327,-0.00029892,0.000
 47610,-0.00618859,0.00332014,-0.00562314,-0.00027302,-0.00102082,-0.00
 090119,-0.00023464,0.00004126,0.00001306,0.00919172,-0.00515842,-0.037
 03262,-0.00007729,0.00001666,-0.00005445,0.00001628,0.00001304,-0.0000
 4381,-0.00000741,-0.00000014,0.00000597,0.00000834,0.00000447,0.000002
 81,0.00000165,-0.00000405,0.00000257,-0.00026523,0.00418934,0.39528295
 ,-0.00026981,-0.00091227,-0.00003047,0.00001755,0.00018375,0.00009139,
 0.00000077,-0.00000557,-0.00000597,0.00000194,0.00000560,0.00001698,0.
 00005417,0.00004137,-0.00004829,-0.00001050,0.00000334,-0.00001301,-0.
 00000933,-0.00000516,-0.00003377,0.00000230,-0.00000011,0.00000266,-0.
 00000203,-0.00000222,-0.00000155,-0.00000592,0.00015810,0.00020616,0.0
 0003941,-0.00001370,-0.00004950,0.00004531,0.00000290,-0.00000055,-0.0
 0000401,0.00000916,-0.00001397,0.00002614,-0.00004707,-0.00003819,-0.0
 0000693,0.00000363,-0.00000240,-0.00060092,0.00007987,0.00016635,0.001
 22390,0.00048520,0.00056401,0.00016876,-0.00013251,0.00008652,-0.00273
 308,0.00271788,-0.00293829,0.00048700,0.00021004,0.00003664,-0.0000048
 3,0.00001088,0.00000774,-0.03044826,0.02036923,-0.01930963,0.00002636,
 0.00001756,-0.00002863,-0.00000490,0.00000979,0.00000326,0.00000239,0.
 00000012,-0.00000173,0.00000212,-0.00000064,0.00000088,-0.00000183,0.0
 0000096,-0.00000083,-0.03951670,0.02048698,-0.02476338,0.06161761,0.00
 003200,0.00034994,-0.00004224,-0.00003031,-0.00004296,0.00002486,-0.00
 002108,0.00000895,0.00000691,-0.00003169,0.00001136,-0.00001810,-0.000
 01529,-0.00003404,0.00005607,0.00000368,0.00000422,0.00001869,-0.00000
 348,0.00001712,0.00002331,-0.00000546,-0.00000900,-0.00001118,0.000001
 57,0.00000158,-0.00001480,0.00003875,-0.00010167,-0.00008932,-0.000036
 10,-0.00000623,0.00003046,-0.00002448,-0.00000387,-0.00001156,0.000004
 54,-0.00001448,0.00001158,-0.00000163,-0.00002228,-0.00002270,0.000013
 11,-0.00000381,-0.00000349,-0.00004541,-0.00002591,-0.00000624,-0.0001
 7542,-0.00036932,0.00012677,0.00014725,0.00003516,-0.00003254,0.000165
 36,0.00316965,-0.00005019,0.00066818,-0.00071431,0.00022678,-0.0000878
 7,-0.00000287,0.00004268,0.00970049,-0.00474279,0.00457799,-0.00009193
 ,-0.00001962,-0.00000911,0.00002130,-0.00000256,-0.00001963,-0.0000081
 8,0.00000131,0.00000583,0.00000157,0.00000484,-0.00000196,0.00000336,-
 0.00000481,-0.00000023,0.02748792,-0.11016388,0.08634307,-0.03747105,0
 .12671245,-0.00002950,-0.00055825,0.00006443,0.00002570,0.00010561,-0.
 00004195,0.00003360,-0.00001564,-0.00000306,0.00006006,-0.00003010,0.0
 0003108,0.00000732,0.00006824,-0.00009355,-0.00000645,-0.00000734,-0.0
 0003287,0.00000262,-0.00002833,-0.00004485,0.00000602,0.00001528,0.000
 01821,-0.00000630,-0.00000161,0.00002426,-0.00006619,0.00017046,0.0001
 5000,0.00005826,0.00001080,-0.00005432,0.00004355,0.00000671,0.0000258
 4,-0.00000848,0.00002567,-0.00002062,0.00000457,0.00002664,0.00002244,
 -0.00002249,0.00000661,0.00000570,0.00005453,0.00002283,-0.00002310,0.
 00037082,0.00036313,-0.00014652,-0.00025413,-0.00004327,0.00007095,-0.
 00322612,-0.00199453,0.00002599,0.00044083,0.00055833,-0.00007905,0.00
 015079,0.00000518,-0.00007256,-0.00516751,0.00442006,0.00065562,0.0001
 6926,0.00002820,0.00001181,-0.00003816,0.00000788,0.00003714,0.0000147
 0,-0.00000215,-0.00001027,-0.00000345,-0.00000860,0.00000371,-0.000005
 51,0.00000893,0.00000085,-0.03183115,0.08692048,-0.13244996,0.04025039
 ,-0.10528400,0.15157722,-0.00003461,-0.00036495,-0.00004792,-0.0000480
 0,0.00015508,0.00005913,-0.00000609,0.00000244,-0.00000015,-0.00000191
 ,-0.00000506,-0.00001171,0.00001731,0.00000788,0.00000747,-0.00000278,
 0.00000402,0.00000104,-0.00000992,0.00000200,-0.00002139,0.00000087,-0
 .00000592,-0.00000228,0.00000238,0.00000288,-0.00000415,0.00000181,0.0
 0004794,0.00008321,0.00000040,-0.00001202,-0.00001260,0.00001517,0.000
 00888,-0.00000735,-0.00000132,-0.00000267,-0.00000228,0.00005171,-0.00
 008766,-0.00002740,0.00000117,-0.00000018,-0.00000373,0.00018005,-0.00
 011562,0.00038530,0.00017263,0.00058812,-0.00127284,0.00005760,0.00003
 624,-0.00004961,-0.00248700,0.00121797,0.00372476,0.00038973,0.0004530
 3,0.00003285,0.00005828,-0.00001066,-0.00001378,-0.03114750,0.01232370
 ,0.02469518,0.00002166,-0.00000020,-0.00001479,-0.00000357,0.00000073,
 0.00000506,0.00000172,-0.00000016,-0.00000059,-0.00000099,-0.00000134,
 0.00000016,-0.00000073,0.00000112,-0.00000010,-0.04112900,0.01149454,0
 .03339303,0.00497105,-0.00089783,-0.00191638,0.06386107,-0.00000073,0.
 00013591,-0.00001999,-0.00001161,-0.00001117,0.00001750,-0.00000787,0.
 00000511,-0.00000121,-0.00001500,0.00000232,-0.00000743,-0.00001391,-0
 .00002097,0.00002770,0.00000030,0.00000177,0.00000650,0.00000076,0.000
 00547,0.00000646,-0.00000089,-0.00000266,-0.00000285,0.00000132,0.0000
 0167,-0.00000430,0.00001533,-0.00003935,-0.00003073,-0.00002275,-0.000
 00327,0.00001573,-0.00000820,-0.00000009,-0.00000296,0.00000085,-0.000
 00520,0.00000391,0.00000683,-0.00000684,-0.00000120,0.00000430,-0.0000
 0130,-0.00000108,0.00000481,-0.00002962,-0.00000849,-0.00005035,-0.000
 18570,-0.00002092,0.00004124,0.00002439,-0.00001691,-0.00101300,0.0020
 4462,0.00061117,0.00069415,-0.00042581,-0.00027605,-0.00002391,-0.0000
 0309,0.00001634,0.00756501,-0.00108678,-0.00512395,-0.00002183,-0.0000
 0903,-0.00000108,0.00000537,0.00000128,-0.00000335,-0.00000181,0.00000
 019,0.00000122,0.00000011,0.00000138,-0.00000082,0.00000107,-0.0000012
 4,0.00000002,0.01548287,-0.05556120,-0.05684445,-0.00178413,0.00574603
 ,0.01216999,-0.02218525,0.06013320,0.00004318,0.00059916,-0.00006913,-
 0.00004284,-0.00009563,0.00002990,-0.00004327,0.00001761,0.00001290,-0
 .00005790,0.00002824,-0.00003150,0.00001169,-0.00008174,0.00009762,0.0
 0000845,0.00000777,0.00003720,-0.00000821,0.00003677,0.00005361,-0.000
 00926,-0.00001759,-0.00002238,0.00000315,0.00000335,-0.00003021,0.0000
 8068,-0.00018941,-0.00015745,-0.00006044,-0.00000998,0.00005777,-0.000
 04679,-0.00001321,-0.00001940,0.00000937,-0.00002758,0.00002301,-0.000
 01741,-0.00002289,-0.00003927,0.00002710,-0.00000703,-0.00000587,-0.00
 004854,-0.00004412,0.00010194,-0.00041829,-0.00042214,-0.00005466,0.00
 031026,0.00005538,-0.00008909,0.00292801,0.00289298,0.00075363,-0.0001
 9278,-0.00074725,-0.00031666,-0.00017151,-0.00000642,0.00008888,0.0076
 3713,-0.00489817,-0.00214078,-0.00018575,-0.00003124,-0.00001977,0.000
 04266,-0.00000964,-0.00003505,-0.00001692,0.00000250,0.00001162,0.0000
 0363,0.00001021,-0.00000380,0.00000583,-0.00001035,-0.00000049,0.04255
 642,-0.05744353,-0.18553898,0.00210378,-0.00132372,-0.02277914,-0.0540
 6254,0.07012936,0.21613724,0.00024317,0.00118560,-0.00002229,0.0000039
 8,-0.00027279,-0.00004646,-0.00002275,0.00002255,0.00001073,-0.0000394
 8,0.00000903,-0.00002985,-0.00007257,-0.00005818,0.00010487,0.00001183
 ,0.00000249,0.00003297,0.00001009,0.00002837,0.00007032,-0.00000859,-0
 .00001047,-0.00001584,0.00000477,0.00000249,-0.00001842,0.00005909,-0.
 00024815,-0.00027753,-0.00006357,0.00000596,0.00008224,-0.00006636,-0.
 00001442,-0.00000892,0.00000900,-0.00002596,0.00002516,-0.00031853,0.0
 0016826,0.00008410,0.00002223,-0.00000789,-0.00000144,0.00018634,-0.00
 006097,-0.00064391,-0.00144856,-0.00189559,0.00071003,0.00000619,0.000
 17731,-0.00003673,-0.00700698,0.00338752,0.00010284,0.00110027,0.00022
 026,0.00008815,-0.00016723,-0.00001281,0.00007260,-0.03208752,-0.02995
 469,-0.00573505,-0.00014445,-0.00003275,0.00001335,0.00003407,-0.00001
 413,-0.00002764,-0.00001205,0.00000111,0.00000898,0.00000127,0.0000074
 2,-0.00000379,0.00000621,-0.00000833,0.00000033,-0.05391781,-0.0554832
 7,-0.01040431,0.00493228,0.00065789,0.00088851,0.00506843,0.00133647,-
 0.00038910,0.08367678,-0.00009830,-0.00094242,0.00009569,0.00005147,0.
 00014862,-0.00002607,0.00005546,-0.00002165,-0.00001169,0.00008671,-0.
 00002970,0.00005121,0.00001732,0.00009586,-0.00014951,-0.00001263,-0.0
 0001265,-0.00005491,0.00000917,-0.00004310,-0.00007949,0.00001024,0.00
 002300,0.00003119,-0.00000683,-0.00000688,0.00004200,-0.00011963,0.000
 27432,0.00022428,0.00006881,0.00001584,-0.00009091,0.00006702,0.000016
 49,0.00003295,-0.00001408,0.00004210,-0.00003369,0.00004824,-0.0000098
 3,0.00002104,-0.00003779,0.00001089,0.00000827,0.00006253,0.00008598,0
 .00007013,0.00079531,0.00098989,-0.00023308,-0.00038504,-0.00013514,0.
 00008942,-0.00092154,-0.00452501,-0.00041629,-0.00002731,0.00145723,0.
 00014880,0.00024999,0.00001832,-0.00012090,-0.01074394,0.00345734,-0.0
 0021451,0.00025755,0.00004522,0.00002209,-0.00005823,0.00001891,0.0000
 5373,0.00002310,-0.00000336,-0.00001641,-0.00000523,-0.00001401,0.0000
 0571,-0.00000874,0.00001397,0.00000062,-0.06316975,-0.18720237,-0.0290
 0384,-0.00442311,-0.01977870,0.00303223,-0.00265793,-0.01071018,-0.008
 38167,0.08088787,0.21672133,-0.00000826,-0.00022020,0.00002552,0.00000
 151,0.00003998,-0.00002308,0.00000793,-0.00000671,0.00000824,0.0000245
 1,-0.00000800,0.00001421,0.00001190,0.00003289,-0.00003782,-0.00000107
 ,-0.00000298,-0.00001047,-0.00000332,-0.00000688,-0.00001342,-0.000001
 43,0.00000342,0.00000356,-0.00000497,-0.00000138,0.00000539,-0.0000173
 5,0.00006516,0.00005048,0.00003077,0.00000393,-0.00002478,0.00001597,-
 0.00000250,0.00000973,-0.00000183,0.00000890,-0.00000674,0.00004482,-0
 .00002491,-0.00002921,-0.00000601,0.00000227,0.00000145,-0.00002754,0.
 00002772,0.00003795,0.00015862,0.00016625,-0.00003007,-0.00004486,-0.0
 0003200,0.00002210,-0.00020233,-0.00076157,0.00019808,0.00001378,0.000
 24876,0.00001022,0.00003467,0.00000529,-0.00001828,-0.00247771,-0.0002
 9119,0.00291087,0.00003901,0.00000939,-0.00000207,-0.00000855,0.000002
 01,0.00000931,0.00000299,-0.00000027,-0.00000215,-0.00000068,-0.000001
 97,0.00000134,-0.00000154,0.00000202,0.00000028,-0.01177225,-0.0289679
 8,-0.03890962,0.00374263,0.01544588,0.00312669,-0.00491453,-0.02063843
 ,-0.00605187,0.01536566,0.03490359,0.03872390\\-0.00000968,0.00000394,
 -0.00002454,-0.00000128,-0.00000121,0.00000405,0.00000066,-0.00000024,
 0.00000596,0.00000156,0.00000827,0.00000294,0.00000262,0.00000777,0.00
 000390,0.00000169,0.00000688,-0.00000020,-0.00000184,-0.00000684,0.000
 00623,-0.00000168,-0.00001011,0.00000939,-0.00000345,-0.00001026,-0.00
 000005,0.00000236,-0.00000265,0.00001269,0.00000224,0.00000171,0.00001
 442,0.00000212,0.00000064,0.00001016,0.00000299,0.00000558,0.00001302,
 -0.00000084,-0.00000510,0.00000805,0.00000028,-0.00000246,0.00000523,-
 0.00002097,-0.00002946,-0.00003834,0.00004067,0.00004829,0.00008299,-0
 .00000825,-0.00000230,-0.00000360,-0.00000586,-0.00002261,-0.00003360,
 -0.00000186,-0.00000116,-0.00001001,0.00000045,-0.00000406,-0.00001025
 ,0.00000077,-0.00000275,0.00000155,-0.00000114,0.00000624,-0.00001413,
 0.00000007,0.00000556,-0.00001125,0.00000183,0.00000984,-0.00001373,-0
 .00000165,0.00000384,-0.00001792,0.00000055,0.00000430,-0.00000976,-0.
 00000080,-0.00000261,0.00000102,-0.00000171,-0.00000650,-0.00000100,0.
 00000046,0.00000104,0.00000016,-0.00000030,-0.00000357,0.00000662\\\@


 ALL SCIENCE IS EITHER PHYSICS, OR STAMP COLLECTING.
   --ERNEST RUTHERFORD, 1871-1937.
 Job cpu time:       0 days  0 hours  0 minutes 42.0 seconds.
 File lengths (MBytes):  RWF=    138 Int=      0 D2E=      0 Chk=      9 Scr=      1
 Normal termination of Gaussian 09 at Wed Sep  9 11:10:58 2020.
