 Entering Gaussian System, Link 0=g09
 Input=pm6_product_step1_cycloaddition_m062x_toluene_3_radical_2_water.com
 Output=pm6_product_step1_cycloaddition_m062x_toluene_3_radical_2_water.log
 Initial command:
 /apps/applications/gaussian/G09.D01/2/default/g09/l1.exe "/local/2608486.1.40core-192G.q/Gau-303673.inp" -scrdir="/local/2608486.1.40core-192G.q/"
 Entering Link 1 = /apps/applications/gaussian/G09.D01/2/default/g09/l1.exe PID=    303674.
  
 Copyright (c) 1988,1990,1992,1993,1995,1998,2003,2009,2013,
            Gaussian, Inc.  All Rights Reserved.
  
 This is part of the Gaussian(R) 09 program.  It is based on
 the Gaussian(R) 03 system (copyright 2003, Gaussian, Inc.),
 the Gaussian(R) 98 system (copyright 1998, Gaussian, Inc.),
 the Gaussian(R) 94 system (copyright 1995, Gaussian, Inc.),
 the Gaussian 92(TM) system (copyright 1992, Gaussian, Inc.),
 the Gaussian 90(TM) system (copyright 1990, Gaussian, Inc.),
 the Gaussian 88(TM) system (copyright 1988, Gaussian, Inc.),
 the Gaussian 86(TM) system (copyright 1986, Carnegie Mellon
 University), and the Gaussian 82(TM) system (copyright 1983,
 Carnegie Mellon University). Gaussian is a federally registered
 trademark of Gaussian, Inc.
  
 This software contains proprietary and confidential information,
 including trade secrets, belonging to Gaussian, Inc.
  
 This software is provided under written license and may be
 used, copied, transmitted, or stored only in accord with that
 written license.
  
 The following legend is applicable only to US Government
 contracts under FAR:
  
                    RESTRICTED RIGHTS LEGEND
  
 Use, reproduction and disclosure by the US Government is
 subject to restrictions as set forth in subparagraphs (a)
 and (c) of the Commercial Computer Software - Restricted
 Rights clause in FAR 52.227-19.
  
 Gaussian, Inc.
 340 Quinnipiac St., Bldg. 40, Wallingford CT 06492
  
  
 ---------------------------------------------------------------
 Warning -- This program may not be used in any manner that
 competes with the business of Gaussian, Inc. or will provide
 assistance to any competitor of Gaussian, Inc.  The licensee
 of this program is prohibited from giving any competitor of
 Gaussian, Inc. access to this program.  By using this program,
 the user acknowledges that Gaussian, Inc. is engaged in the
 business of creating and licensing software in the field of
 computational chemistry and represents and warrants to the
 licensee that it is not a competitor of Gaussian, Inc. and that
 it will not use this program in any manner prohibited above.
 ---------------------------------------------------------------
  

 Cite this work as:
 Gaussian 09, Revision D.01,
 M. J. Frisch, G. W. Trucks, H. B. Schlegel, G. E. Scuseria, 
 M. A. Robb, J. R. Cheeseman, G. Scalmani, V. Barone, B. Mennucci, 
 G. A. Petersson, H. Nakatsuji, M. Caricato, X. Li, H. P. Hratchian, 
 A. F. Izmaylov, J. Bloino, G. Zheng, J. L. Sonnenberg, M. Hada, 
 M. Ehara, K. Toyota, R. Fukuda, J. Hasegawa, M. Ishida, T. Nakajima, 
 Y. Honda, O. Kitao, H. Nakai, T. Vreven, J. A. Montgomery, Jr., 
 J. E. Peralta, F. Ogliaro, M. Bearpark, J. J. Heyd, E. Brothers, 
 K. N. Kudin, V. N. Staroverov, T. Keith, R. Kobayashi, J. Normand, 
 K. Raghavachari, A. Rendell, J. C. Burant, S. S. Iyengar, J. Tomasi, 
 M. Cossi, N. Rega, J. M. Millam, M. Klene, J. E. Knox, J. B. Cross, 
 V. Bakken, C. Adamo, J. Jaramillo, R. Gomperts, R. E. Stratmann, 
 O. Yazyev, A. J. Austin, R. Cammi, C. Pomelli, J. W. Ochterski, 
 R. L. Martin, K. Morokuma, V. G. Zakrzewski, G. A. Voth, 
 P. Salvador, J. J. Dannenberg, S. Dapprich, A. D. Daniels, 
 O. Farkas, J. B. Foresman, J. V. Ortiz, J. Cioslowski, 
 and D. J. Fox, Gaussian, Inc., Wallingford CT, 2013.
 
 ******************************************
 Gaussian 09:  ES64L-G09RevD.01 24-Apr-2013
                12-Jul-2021 
 ******************************************
 %nprocshared=4
 Will use up to    4 processors via shared memory.
 %chk=product_cycloaddition_m062x_toluene_2.chk
 ----------------------------------------------------------------------
 # opt freq pm6 scrf=(cpcm,solvent=water) geom=connectivity empiricaldi
 spersion=gd3
 ----------------------------------------------------------------------
 1/14=-1,18=20,19=15,26=1,38=1,57=2/1,3;
 2/9=110,12=2,17=6,18=5,40=1/2;
 3/5=2,16=1,25=1,41=3900000,70=2101,71=1,72=1,124=31/1,2,3;
 4/35=1/1;
 5/5=2,35=1,38=5,53=1/2;
 6/7=2,8=2,9=2,10=2,28=1/1;
 7//1,2,3,16;
 1/14=-1,18=20,19=15,26=1/3(2);
 2/9=110/2;
 99//99;
 2/9=110/2;
 3/5=2,16=1,25=1,41=3900000,70=2105,71=1,72=1,124=31,135=20/1,2,3;
 4/5=5,16=3,35=1/1;
 5/5=2,35=1,38=5,53=1/2;
 7//1,2,3,16;
 1/14=-1,18=20,19=15,26=1/3(-5);
 2/9=110/2;
 6/7=2,8=2,9=2,10=2,19=2,28=1/1;
 99/9=1/99;
 -------------------
 Title Card Required
 -------------------
 Symbolic Z-matrix:
 Charge =  0 Multiplicity = 3
 C                     0.44979   0.7023   -0.53627 
 C                     0.74283   1.82288   0.55082 
 C                    -1.58775   1.76359   0.40347 
 C                    -1.00052   1.11082  -0.85431 
 H                     1.11401   0.81647  -1.43195 
 H                    -1.57061   0.56356  -1.5922 
 C                    -0.5021    1.70446   1.49451 
 H                    -0.5703    2.54151   2.20494 
 H                    -0.52389   0.77781   2.08479 
 C                     0.34512   3.03021  -0.2693 
 H                     0.88918   3.91864  -0.44459 
 C                    -1.01657   2.66196  -0.72289 
 H                    -1.61243   3.30553  -1.3509 
 H                     1.72801   1.79831   1.01717 
 H                    -2.63162   1.71853   0.67313 
 N                    -0.21514  -1.50953   0.51794 
 N                     0.65697  -0.68984  -0.02691 
 C                    -1.63444  -1.35396   0.46239 
 C                     2.02513  -1.18888   0.05712 
 O                     2.38852  -2.27841   0.40908 
 O                    -2.36053  -1.25205   1.42256 
 O                     2.84732  -0.17772  -0.37951 
 O                    -2.07889  -1.53726  -0.8273 
 C                    -3.51869  -1.65396  -1.00946 
 H                    -3.60484  -1.79359  -2.09374 
 H                    -3.89135  -2.52412  -0.45973 
 H                    -4.00851  -0.73364  -0.67685 
 C                     4.27172  -0.49988  -0.41842 
 H                     4.6997    0.44004  -0.7906 
 H                     4.6253   -0.73779   0.59009 
 H                     4.44602  -1.32939  -1.11125 
 

 GradGradGradGradGradGradGradGradGradGradGradGradGradGradGradGradGradGrad
 Berny optimization.
 Initialization pass.
                           ----------------------------
                           !    Initial Parameters    !
                           ! (Angstroms and Degrees)  !
 --------------------------                            --------------------------
 ! Name  Definition              Value          Derivative Info.                !
 --------------------------------------------------------------------------------
 ! R1    R(1,2)                  1.5885         estimate D2E/DX2                !
 ! R2    R(1,4)                  1.5399         estimate D2E/DX2                !
 ! R3    R(1,5)                  1.1209         estimate D2E/DX2                !
 ! R4    R(1,17)                 1.4968         estimate D2E/DX2                !
 ! R5    R(2,7)                  1.5667         estimate D2E/DX2                !
 ! R6    R(2,10)                 1.5127         estimate D2E/DX2                !
 ! R7    R(2,14)                 1.0903         estimate D2E/DX2                !
 ! R8    R(3,4)                  1.5339         estimate D2E/DX2                !
 ! R9    R(3,7)                  1.5403         estimate D2E/DX2                !
 ! R10   R(3,12)                 1.5498         estimate D2E/DX2                !
 ! R11   R(3,15)                 1.0791         estimate D2E/DX2                !
 ! R12   R(4,6)                  1.0812         estimate D2E/DX2                !
 ! R13   R(4,12)                 1.5568         estimate D2E/DX2                !
 ! R14   R(7,8)                  1.1            estimate D2E/DX2                !
 ! R15   R(7,9)                  1.0989         estimate D2E/DX2                !
 ! R16   R(10,11)                1.0564         estimate D2E/DX2                !
 ! R17   R(10,12)                1.4817         estimate D2E/DX2                !
 ! R18   R(12,13)                1.0787         estimate D2E/DX2                !
 ! R19   R(16,17)                1.315          estimate D2E/DX2                !
 ! R20   R(16,18)                1.4289         estimate D2E/DX2                !
 ! R21   R(17,19)                1.4588         estimate D2E/DX2                !
 ! R22   R(18,21)                1.2081         estimate D2E/DX2                !
 ! R23   R(18,23)                1.3764         estimate D2E/DX2                !
 ! R24   R(19,20)                1.2012         estimate D2E/DX2                !
 ! R25   R(19,22)                1.3744         estimate D2E/DX2                !
 ! R26   R(22,28)                1.4609         estimate D2E/DX2                !
 ! R27   R(23,24)                1.456          estimate D2E/DX2                !
 ! R28   R(24,25)                1.0966         estimate D2E/DX2                !
 ! R29   R(24,26)                1.0947         estimate D2E/DX2                !
 ! R30   R(24,27)                1.0943         estimate D2E/DX2                !
 ! R31   R(28,29)                1.0978         estimate D2E/DX2                !
 ! R32   R(28,30)                1.0949         estimate D2E/DX2                !
 ! R33   R(28,31)                1.0948         estimate D2E/DX2                !
 ! A1    A(2,1,4)               97.3502         estimate D2E/DX2                !
 ! A2    A(2,1,5)              111.4492         estimate D2E/DX2                !
 ! A3    A(2,1,17)             113.4334         estimate D2E/DX2                !
 ! A4    A(4,1,5)              111.4707         estimate D2E/DX2                !
 ! A5    A(4,1,17)             116.5752         estimate D2E/DX2                !
 ! A6    A(5,1,17)             106.5367         estimate D2E/DX2                !
 ! A7    A(1,2,7)              102.258          estimate D2E/DX2                !
 ! A8    A(1,2,10)              98.2499         estimate D2E/DX2                !
 ! A9    A(1,2,14)             116.3288         estimate D2E/DX2                !
 ! A10   A(7,2,10)             100.2522         estimate D2E/DX2                !
 ! A11   A(7,2,14)             117.3031         estimate D2E/DX2                !
 ! A12   A(10,2,14)            119.1725         estimate D2E/DX2                !
 ! A13   A(4,3,7)              107.136          estimate D2E/DX2                !
 ! A14   A(4,3,15)             123.8819         estimate D2E/DX2                !
 ! A15   A(7,3,12)             106.0979         estimate D2E/DX2                !
 ! A16   A(7,3,15)             120.2133         estimate D2E/DX2                !
 ! A17   A(12,3,15)            124.2173         estimate D2E/DX2                !
 ! A18   A(1,4,3)              107.7037         estimate D2E/DX2                !
 ! A19   A(1,4,6)              120.2158         estimate D2E/DX2                !
 ! A20   A(1,4,12)             104.8685         estimate D2E/DX2                !
 ! A21   A(3,4,6)              124.9702         estimate D2E/DX2                !
 ! A22   A(6,4,12)             123.8143         estimate D2E/DX2                !
 ! A23   A(2,7,3)               97.4993         estimate D2E/DX2                !
 ! A24   A(2,7,8)              112.3817         estimate D2E/DX2                !
 ! A25   A(2,7,9)              113.7698         estimate D2E/DX2                !
 ! A26   A(3,7,8)              112.6164         estimate D2E/DX2                !
 ! A27   A(3,7,9)              113.5081         estimate D2E/DX2                !
 ! A28   A(8,7,9)              107.069          estimate D2E/DX2                !
 ! A29   A(2,10,11)            128.7371         estimate D2E/DX2                !
 ! A30   A(2,10,12)            102.0764         estimate D2E/DX2                !
 ! A31   A(11,10,12)           129.1596         estimate D2E/DX2                !
 ! A32   A(3,12,10)            105.0857         estimate D2E/DX2                !
 ! A33   A(3,12,13)            124.4274         estimate D2E/DX2                !
 ! A34   A(4,12,10)            105.3065         estimate D2E/DX2                !
 ! A35   A(4,12,13)            123.4358         estimate D2E/DX2                !
 ! A36   A(10,12,13)           122.5184         estimate D2E/DX2                !
 ! A37   A(17,16,18)           125.0833         estimate D2E/DX2                !
 ! A38   A(1,17,16)            128.9713         estimate D2E/DX2                !
 ! A39   A(1,17,19)            117.8788         estimate D2E/DX2                !
 ! A40   A(16,17,19)           112.637          estimate D2E/DX2                !
 ! A41   A(16,18,21)           125.1186         estimate D2E/DX2                !
 ! A42   A(16,18,23)           110.0396         estimate D2E/DX2                !
 ! A43   A(21,18,23)           124.1857         estimate D2E/DX2                !
 ! A44   A(17,19,20)           127.6539         estimate D2E/DX2                !
 ! A45   A(17,19,22)           106.9218         estimate D2E/DX2                !
 ! A46   A(20,19,22)           125.4069         estimate D2E/DX2                !
 ! A47   A(19,22,28)           115.4348         estimate D2E/DX2                !
 ! A48   A(18,23,24)           116.5659         estimate D2E/DX2                !
 ! A49   A(23,24,25)           102.2157         estimate D2E/DX2                !
 ! A50   A(23,24,26)           109.7276         estimate D2E/DX2                !
 ! A51   A(23,24,27)           109.7068         estimate D2E/DX2                !
 ! A52   A(25,24,26)           111.6281         estimate D2E/DX2                !
 ! A53   A(25,24,27)           111.8659         estimate D2E/DX2                !
 ! A54   A(26,24,27)           111.3155         estimate D2E/DX2                !
 ! A55   A(22,28,29)           101.5568         estimate D2E/DX2                !
 ! A56   A(22,28,30)           109.7708         estimate D2E/DX2                !
 ! A57   A(22,28,31)           109.827          estimate D2E/DX2                !
 ! A58   A(29,28,30)           111.8659         estimate D2E/DX2                !
 ! A59   A(29,28,31)           111.847          estimate D2E/DX2                !
 ! A60   A(30,28,31)           111.5238         estimate D2E/DX2                !
 ! D1    D(4,1,2,7)             49.3705         estimate D2E/DX2                !
 ! D2    D(4,1,2,10)           -53.0768         estimate D2E/DX2                !
 ! D3    D(4,1,2,14)           178.5124         estimate D2E/DX2                !
 ! D4    D(5,1,2,7)            165.9347         estimate D2E/DX2                !
 ! D5    D(5,1,2,10)            63.4874         estimate D2E/DX2                !
 ! D6    D(5,1,2,14)           -64.9233         estimate D2E/DX2                !
 ! D7    D(17,1,2,7)           -73.8276         estimate D2E/DX2                !
 ! D8    D(17,1,2,10)         -176.2749         estimate D2E/DX2                !
 ! D9    D(17,1,2,14)           55.3143         estimate D2E/DX2                !
 ! D10   D(2,1,4,3)            -28.5881         estimate D2E/DX2                !
 ! D11   D(2,1,4,6)            179.5104         estimate D2E/DX2                !
 ! D12   D(2,1,4,12)            34.3327         estimate D2E/DX2                !
 ! D13   D(5,1,4,3)           -145.1353         estimate D2E/DX2                !
 ! D14   D(5,1,4,6)             62.9631         estimate D2E/DX2                !
 ! D15   D(5,1,4,12)           -82.2146         estimate D2E/DX2                !
 ! D16   D(17,1,4,3)            92.2672         estimate D2E/DX2                !
 ! D17   D(17,1,4,6)           -59.6344         estimate D2E/DX2                !
 ! D18   D(17,1,4,12)          155.188          estimate D2E/DX2                !
 ! D19   D(2,1,17,16)           92.2812         estimate D2E/DX2                !
 ! D20   D(2,1,17,19)          -78.8336         estimate D2E/DX2                !
 ! D21   D(4,1,17,16)          -19.6019         estimate D2E/DX2                !
 ! D22   D(4,1,17,19)          169.2833         estimate D2E/DX2                !
 ! D23   D(5,1,17,16)         -144.7328         estimate D2E/DX2                !
 ! D24   D(5,1,17,19)           44.1524         estimate D2E/DX2                !
 ! D25   D(1,2,7,3)            -50.5658         estimate D2E/DX2                !
 ! D26   D(1,2,7,8)           -168.8397         estimate D2E/DX2                !
 ! D27   D(1,2,7,9)             69.2749         estimate D2E/DX2                !
 ! D28   D(10,2,7,3)            50.3006         estimate D2E/DX2                !
 ! D29   D(10,2,7,8)           -67.9733         estimate D2E/DX2                !
 ! D30   D(10,2,7,9)           170.1412         estimate D2E/DX2                !
 ! D31   D(14,2,7,3)          -179.096          estimate D2E/DX2                !
 ! D32   D(14,2,7,8)            62.6301         estimate D2E/DX2                !
 ! D33   D(14,2,7,9)           -59.2554         estimate D2E/DX2                !
 ! D34   D(1,2,10,11)         -128.9152         estimate D2E/DX2                !
 ! D35   D(1,2,10,12)           52.8553         estimate D2E/DX2                !
 ! D36   D(7,2,10,11)          126.9479         estimate D2E/DX2                !
 ! D37   D(7,2,10,12)          -51.2815         estimate D2E/DX2                !
 ! D38   D(14,2,10,11)          -2.4592         estimate D2E/DX2                !
 ! D39   D(14,2,10,12)         179.3113         estimate D2E/DX2                !
 ! D40   D(7,3,4,1)             -1.8486         estimate D2E/DX2                !
 ! D41   D(7,3,4,6)            148.3713         estimate D2E/DX2                !
 ! D42   D(15,3,4,1)          -149.1324         estimate D2E/DX2                !
 ! D43   D(15,3,4,6)             1.0876         estimate D2E/DX2                !
 ! D44   D(4,3,7,2)             31.8919         estimate D2E/DX2                !
 ! D45   D(4,3,7,8)            149.9844         estimate D2E/DX2                !
 ! D46   D(4,3,7,9)            -88.1475         estimate D2E/DX2                !
 ! D47   D(12,3,7,2)           -31.6803         estimate D2E/DX2                !
 ! D48   D(12,3,7,8)            86.4122         estimate D2E/DX2                !
 ! D49   D(12,3,7,9)          -151.7197         estimate D2E/DX2                !
 ! D50   D(15,3,7,2)          -179.3889         estimate D2E/DX2                !
 ! D51   D(15,3,7,8)           -61.2964         estimate D2E/DX2                !
 ! D52   D(15,3,7,9)            60.5717         estimate D2E/DX2                !
 ! D53   D(7,3,12,10)            1.8598         estimate D2E/DX2                !
 ! D54   D(7,3,12,13)         -147.428          estimate D2E/DX2                !
 ! D55   D(15,3,12,10)         147.9222         estimate D2E/DX2                !
 ! D56   D(15,3,12,13)          -1.3655         estimate D2E/DX2                !
 ! D57   D(1,4,12,10)           -3.4715         estimate D2E/DX2                !
 ! D58   D(1,4,12,13)          144.5864         estimate D2E/DX2                !
 ! D59   D(6,4,12,10)         -147.0362         estimate D2E/DX2                !
 ! D60   D(6,4,12,13)            1.0217         estimate D2E/DX2                !
 ! D61   D(2,10,12,3)           30.4201         estimate D2E/DX2                !
 ! D62   D(2,10,12,4)          -31.1269         estimate D2E/DX2                !
 ! D63   D(2,10,12,13)        -179.5533         estimate D2E/DX2                !
 ! D64   D(11,10,12,3)        -147.7987         estimate D2E/DX2                !
 ! D65   D(11,10,12,4)         150.6543         estimate D2E/DX2                !
 ! D66   D(11,10,12,13)          2.2279         estimate D2E/DX2                !
 ! D67   D(18,16,17,1)          15.366          estimate D2E/DX2                !
 ! D68   D(18,16,17,19)       -173.1406         estimate D2E/DX2                !
 ! D69   D(17,16,18,21)       -120.9902         estimate D2E/DX2                !
 ! D70   D(17,16,18,23)         67.9975         estimate D2E/DX2                !
 ! D71   D(1,17,19,20)        -178.2367         estimate D2E/DX2                !
 ! D72   D(1,17,19,22)           0.3022         estimate D2E/DX2                !
 ! D73   D(16,17,19,20)          9.239          estimate D2E/DX2                !
 ! D74   D(16,17,19,22)       -172.2221         estimate D2E/DX2                !
 ! D75   D(16,18,23,24)        169.1169         estimate D2E/DX2                !
 ! D76   D(21,18,23,24)         -1.9967         estimate D2E/DX2                !
 ! D77   D(17,19,22,28)       -177.8452         estimate D2E/DX2                !
 ! D78   D(20,19,22,28)          0.7356         estimate D2E/DX2                !
 ! D79   D(19,22,28,29)        179.9095         estimate D2E/DX2                !
 ! D80   D(19,22,28,30)        -61.5711         estimate D2E/DX2                !
 ! D81   D(19,22,28,31)         61.3878         estimate D2E/DX2                !
 ! D82   D(18,23,24,25)       -179.7624         estimate D2E/DX2                !
 ! D83   D(18,23,24,26)        -61.1901         estimate D2E/DX2                !
 ! D84   D(18,23,24,27)         61.4008         estimate D2E/DX2                !
 --------------------------------------------------------------------------------
 Trust Radius=3.00D-01 FncErr=1.00D-07 GrdErr=1.00D-07
 Number of steps in this run=    186 maximum allowed number of steps=    186.
 GradGradGradGradGradGradGradGradGradGradGradGradGradGradGradGradGradGrad

                          Input orientation:                          
 ---------------------------------------------------------------------
 Center     Atomic      Atomic             Coordinates (Angstroms)
 Number     Number       Type             X           Y           Z
 ---------------------------------------------------------------------
      1          6           0        0.449790    0.702303   -0.536272
      2          6           0        0.742825    1.822878    0.550822
      3          6           0       -1.587753    1.763586    0.403465
      4          6           0       -1.000516    1.110822   -0.854308
      5          1           0        1.114006    0.816472   -1.431954
      6          1           0       -1.570609    0.563556   -1.592204
      7          6           0       -0.502098    1.704455    1.494511
      8          1           0       -0.570297    2.541506    2.204942
      9          1           0       -0.523892    0.777813    2.084790
     10          6           0        0.345123    3.030205   -0.269301
     11          1           0        0.889183    3.918644   -0.444585
     12          6           0       -1.016573    2.661961   -0.722893
     13          1           0       -1.612426    3.305532   -1.350899
     14          1           0        1.728005    1.798311    1.017166
     15          1           0       -2.631619    1.718534    0.673126
     16          7           0       -0.215141   -1.509530    0.517937
     17          7           0        0.656973   -0.689838   -0.026908
     18          6           0       -1.634442   -1.353961    0.462390
     19          6           0        2.025128   -1.188881    0.057120
     20          8           0        2.388524   -2.278407    0.409075
     21          8           0       -2.360527   -1.252051    1.422560
     22          8           0        2.847315   -0.177722   -0.379512
     23          8           0       -2.078890   -1.537262   -0.827304
     24          6           0       -3.518686   -1.653955   -1.009456
     25          1           0       -3.604836   -1.793588   -2.093742
     26          1           0       -3.891354   -2.524116   -0.459727
     27          1           0       -4.008508   -0.733640   -0.676853
     28          6           0        4.271723   -0.499877   -0.418422
     29          1           0        4.699697    0.440036   -0.790595
     30          1           0        4.625299   -0.737785    0.590091
     31          1           0        4.446021   -1.329389   -1.111251
 ---------------------------------------------------------------------
                    Distance matrix (angstroms):
                    1          2          3          4          5
     1  C    0.000000
     2  C    1.588500   0.000000
     3  C    2.482138   2.335984   0.000000
     4  C    1.539942   2.349607   1.533930   0.000000
     5  H    1.120921   2.254336   3.400778   2.211678   0.000000
     6  H    2.283912   3.395649   2.328747   1.081201   2.701260
     7  C    2.456518   1.566654   1.540300   2.473413   3.458974
     8  H    3.455069   2.230881   2.210361   3.404549   4.363443
     9  H    2.797092   2.247174   2.220451   2.996058   3.879651
    10  C    2.345497   1.512748   2.406854   2.415990   2.616019
    11  H    3.247510   2.324756   3.390970   3.409208   3.263267
    12  C    2.454650   2.328496   1.549841   1.556779   2.906538
    13  H    3.419525   3.370759   2.335808   2.331907   3.692617
    14  H    2.290903   1.090257   3.372252   3.379332   2.709094
    15  H    3.462723   3.378271   1.079075   2.315786   4.390306
    16  N    2.538837   3.467524   3.551120   3.060411   3.313456
    17  N    1.496808   2.579706   3.353104   2.583454   2.109977
    18  C    3.093472   3.968819   3.118453   2.865434   3.981618
    19  C    2.531873   3.310398   4.678667   3.908178   2.658745
    20  O    3.679267   4.421420   5.669966   4.956672   3.819955
    21  O    3.943907   4.454875   3.275637   3.552031   4.949689
    22  O    2.558739   3.049065   4.904239   4.085533   2.258410
    23  O    3.390365   4.599114   3.556910   2.859365   4.012512
    24  C    4.639467   5.716932   4.171862   3.742892   5.267196
    25  H    5.009509   6.242972   4.791467   4.093199   5.433033
    26  H    5.409359   6.433753   4.943285   4.661053   6.095768
    27  H    4.685949   5.533366   3.641879   3.532923   5.404921
    28  C    4.008279   4.334483   6.335000   5.529996   3.568081
    29  H    4.265580   4.400964   6.535258   5.739899   3.661997
    30  H    4.558226   4.651037   6.700276   6.095361   4.339765
    31  H    4.519761   5.139352   6.947466   5.973727   3.976166
                    6          7          8          9         10
     6  H    0.000000
     7  C    3.459939   0.000000
     8  H    4.396729   1.100008   0.000000
     9  H    3.829074   1.098895   1.768390   0.000000
    10  C    3.391822   2.363563   2.683039   3.371973   0.000000
    11  H    4.315579   3.255517   3.323640   4.273095   1.056432
    12  C    2.337939   2.469490   2.964100   3.416992   1.481744
    13  H    2.752891   3.448570   3.783355   4.402071   2.253366
    14  H    4.383410   2.282548   2.691717   2.693005   2.254977
    15  H    2.755256   2.282484   2.696811   2.705599   3.386686
    16  N    3.253871   3.371311   4.402614   2.789676   4.641426
    17  N    2.997210   3.064441   4.114478   2.829790   3.740952
    18  C    2.811103   3.420729   4.398131   2.899994   4.865692
    19  C    4.326734   4.101751   5.026446   3.804843   4.552983
    20  O    5.268454   5.039549   5.933913   4.542100   5.728616
    21  O    3.606827   3.492830   4.267097   2.816403   5.340473
    22  O    4.640923   4.274707   5.074808   4.283791   4.069878
    23  O    2.292784   4.287870   5.301577   4.032106   5.200862
    24  C    3.008647   5.162225   6.052045   4.945366   6.117042
    25  H    3.153688   5.893967   6.817635   5.793483   6.496133
    26  H    4.025181   5.760809   6.617432   5.358834   6.988167
    27  H    2.909285   4.791037   5.554513   4.696138   5.769465
    28  C    6.053222   5.595334   6.291042   5.558461   5.282225
    29  H    6.322545   5.820579   6.415782   5.972254   5.093431
    30  H    6.696654   5.750888   6.352615   5.571834   5.766820
    31  H    6.325693   6.362239   7.151532   6.273357   6.044196
                   11         12         13         14         15
    11  H    0.000000
    12  C    2.299699   0.000000
    13  H    2.730450   1.078710   0.000000
    14  H    2.708533   3.362500   4.363247   0.000000
    15  H    4.299513   2.333945   2.766585   4.373905   0.000000
    16  N    5.622371   4.425301   5.350680   3.868702   4.035325
    17  N    4.633193   3.810473   4.781852   2.903117   4.135836
    18  C    5.915374   4.232527   4.999938   4.642267   3.237128
    19  C    5.256319   4.968838   5.950972   3.151712   5.524293
    20  O    6.432744   6.106003   7.091226   4.174409   6.422390
    21  O    6.386152   4.661402   5.387327   5.117142   3.075633
    22  O    4.540785   4.807426   5.741597   2.666134   5.892584
    23  O    6.222768   4.332770   4.893301   5.387074   3.627259
    24  C    7.127570   4.996981   5.324183   6.599478   3.871905
    25  H    7.452887   5.332002   5.524721   7.142736   4.575774
    26  H    8.022650   5.935404   6.322381   7.241670   4.568410
    27  H    6.759073   4.525914   4.744519   6.495233   3.119523
    28  C    5.564673   6.168954   7.069219   3.716596   7.332732
    29  H    5.171117   6.133293   6.954704   3.734148   7.584539
    30  H    6.058997   6.716615   7.682777   3.874079   7.661805
    31  H    6.374746   6.776550   7.631822   4.658356   7.909919
                   16         17         18         19         20
    16  N    0.000000
    17  N    1.315041   0.000000
    18  C    1.428882   2.435376   0.000000
    19  C    2.309540   1.458750   3.685641   0.000000
    20  O    2.717001   2.389958   4.128159   1.201248   0.000000
    21  O    2.342503   3.394458   1.208102   4.593733   4.963269
    22  O    3.458000   2.276882   4.709404   1.374439   2.290248
    23  O    2.298696   2.973837   1.376388   4.212664   4.694222
    24  C    3.642416   4.396709   2.409710   5.664605   6.107152
    25  H    4.288542   4.863444   3.257228   6.057093   6.513026
    26  H    3.936973   4.923331   2.704296   6.087261   6.344451
    27  H    4.052056   4.710739   2.705340   6.095139   6.669900
    28  C    4.693412   3.640850   6.032253   2.397510   2.719257
    29  H    5.446898   4.266550   6.701471   3.244274   3.764394
    30  H    4.902107   4.016292   6.291291   2.692292   2.722030
    31  H    4.940965   3.992707   6.280842   2.691757   2.728611
                   21         22         23         24         25
    21  O    0.000000
    22  O    5.614558   0.000000
    23  O    2.285291   5.129948   0.000000
    24  C    2.723520   6.565216   1.455956   0.000000
    25  H    3.769078   6.868760   1.999520   1.096629   0.000000
    26  H    2.739450   7.135941   2.096192   1.094652   1.812669
    27  H    2.718846   6.884749   2.095679   1.094317   1.814942
    28  C    6.923996   1.460902   6.447762   7.897575   8.156014
    29  H    7.589992   1.995478   7.061182   8.483780   8.697847
    30  H    7.054023   2.101197   6.898864   8.349995   8.720826
    31  H    7.263283   2.101818   6.534394   7.971967   8.123858
                   26         27         28         29         30
    26  H    0.000000
    27  H    1.807394   0.000000
    28  C    8.410415   8.287560   0.000000
    29  H    9.094055   8.787678   1.097775   0.000000
    30  H    8.765071   8.726270   1.094858   1.816340   0.000000
    31  H    8.447703   8.486618   1.094752   1.816050   1.810166
                   31
    31  H    0.000000
 Stoichiometry    C11H14N2O4(3)
 Framework group  C1[X(C11H14N2O4)]
 Deg. of freedom    87
 Full point group                 C1      NOp   1
 Largest Abelian subgroup         C1      NOp   1
 Largest concise Abelian subgroup C1      NOp   1
                         Standard orientation:                         
 ---------------------------------------------------------------------
 Center     Atomic      Atomic             Coordinates (Angstroms)
 Number     Number       Type             X           Y           Z
 ---------------------------------------------------------------------
      1          6           0        0.449790    0.702303   -0.536272
      2          6           0        0.742825    1.822878    0.550822
      3          6           0       -1.587753    1.763586    0.403465
      4          6           0       -1.000516    1.110822   -0.854308
      5          1           0        1.114006    0.816472   -1.431954
      6          1           0       -1.570609    0.563556   -1.592204
      7          6           0       -0.502098    1.704455    1.494511
      8          1           0       -0.570297    2.541506    2.204942
      9          1           0       -0.523892    0.777813    2.084790
     10          6           0        0.345123    3.030205   -0.269301
     11          1           0        0.889183    3.918644   -0.444585
     12          6           0       -1.016573    2.661961   -0.722893
     13          1           0       -1.612426    3.305532   -1.350899
     14          1           0        1.728005    1.798311    1.017166
     15          1           0       -2.631619    1.718534    0.673126
     16          7           0       -0.215141   -1.509530    0.517937
     17          7           0        0.656973   -0.689838   -0.026908
     18          6           0       -1.634442   -1.353961    0.462390
     19          6           0        2.025128   -1.188881    0.057120
     20          8           0        2.388524   -2.278407    0.409075
     21          8           0       -2.360527   -1.252051    1.422560
     22          8           0        2.847315   -0.177722   -0.379512
     23          8           0       -2.078890   -1.537262   -0.827304
     24          6           0       -3.518686   -1.653955   -1.009456
     25          1           0       -3.604836   -1.793588   -2.093742
     26          1           0       -3.891354   -2.524116   -0.459727
     27          1           0       -4.008508   -0.733640   -0.676853
     28          6           0        4.271723   -0.499877   -0.418422
     29          1           0        4.699697    0.440036   -0.790595
     30          1           0        4.625299   -0.737785    0.590091
     31          1           0        4.446021   -1.329389   -1.111251
 ---------------------------------------------------------------------
 Rotational constants (GHZ):      0.6427213      0.4303525      0.3026068
 Standard basis: VSTO-6G (5D, 7F)
 There are    82 symmetry adapted cartesian basis functions of A   symmetry.
 There are    82 symmetry adapted basis functions of A   symmetry.
    82 basis functions,   492 primitive gaussians,    82 cartesian basis functions
    47 alpha electrons       45 beta electrons
       nuclear repulsion energy       736.5425894458 Hartrees.
 Integral buffers will be    131072 words long.
 Regular integral format.
 Two-electron integral symmetry is turned off.
 Nuclear repulsion after empirical dispersion term =      736.5317123247 Hartrees.
 ------------------------------------------------------------------------------
 Polarizable Continuum Model (PCM)
 =================================
 Model                : C-PCM.
 Atomic radii         : UFF (Universal Force Field).
 Polarization charges : Total charges.
 Charge compensation  : None.
 Solution method      : On-the-fly selection.
 Cavity type          : Scaled VdW (van der Waals Surface) (Alpha=1.100).
 Cavity algorithm     : GePol (No added spheres)
                        Default sphere list used, NSphG=   31.
                        Lebedev-Laikov grids with approx.  5.0 points / Ang**2.
                        Smoothing algorithm: Karplus/York (Gamma=1.0000).
                        Polarization charges: spherical gaussians, with
                                              point-specific exponents (IZeta= 3).
                        Self-potential: point-specific (ISelfS= 7).
                        Self-field    : sphere-specific E.n sum rule (ISelfD= 2).
 1st derivatives      : Analytical E(r).r(x)/FMM algorithm (CHGder, D1EAlg=3).
                        Cavity 1st derivative terms included.
 Solvent              : Water, Eps=  78.355300 Eps(inf)=   1.777849
 ------------------------------------------------------------------------------
 Do NDO integrals.
 One-electron integrals computed using PRISM.
 NBasis=    82 RedAO= F EigKep=  0.00D+00  NBF=    82
 NBsUse=    82 1.00D-04 EigRej=  0.00D+00 NBFU=    82
 Simple Huckel Guess.
 Initial guess <Sx>= 0.0000 <Sy>= 0.0000 <Sz>= 1.0000 <S**2>= 2.0000 S= 1.0000
 Overlap will be assumed to be unity.
 Keep J ints in memory in canonical form, NReq=8978271.
 Requested convergence on RMS density matrix=1.00D-08 within 128 cycles.
 Requested convergence on MAX density matrix=1.00D-06.
 Requested convergence on             energy=1.00D-06.
 No special actions if energy rises.
 Inv3:  Mode=1 IEnd=    15759792.
 Iteration    1 A*A^-1 deviation from unit magnitude is 5.44D-15 for    559.
 Iteration    1 A*A^-1 deviation from orthogonality  is 3.34D-15 for   2253    160.
 Iteration    1 A^-1*A deviation from unit magnitude is 5.44D-15 for    559.
 Iteration    1 A^-1*A deviation from orthogonality  is 2.59D-15 for    962    494.
 Error on total polarization charges = -0.00040
 SCF Done:  E(UPM6D3) = -0.125499129976     A.U. after   21 cycles
            NFock= 20  Conv=0.50D-08     -V/T= 0.9979
 <Sx>= 0.0000 <Sy>= 0.0000 <Sz>= 1.0000 <S**2>= 2.0149 S= 1.0049
 <L.S>= 0.000000000000E+00
 Annihilation of the first spin contaminant:
 S**2 before annihilation     2.0149,   after     2.0001

 **********************************************************************

            Population analysis using the SCF density.

 **********************************************************************

 Orbital symmetries:
 Alpha Orbitals:
       Occupied  (A) (A) (A) (A) (A) (A) (A) (A) (A) (A) (A) (A)
                 (A) (A) (A) (A) (A) (A) (A) (A) (A) (A) (A) (A)
                 (A) (A) (A) (A) (A) (A) (A) (A) (A) (A) (A) (A)
                 (A) (A) (A) (A) (A) (A) (A) (A) (A) (A) (A)
       Virtual   (A) (A) (A) (A) (A) (A) (A) (A) (A) (A) (A) (A)
                 (A) (A) (A) (A) (A) (A) (A) (A) (A) (A) (A) (A)
                 (A) (A) (A) (A) (A) (A) (A) (A) (A) (A) (A)
 Beta  Orbitals:
       Occupied  (A) (A) (A) (A) (A) (A) (A) (A) (A) (A) (A) (A)
                 (A) (A) (A) (A) (A) (A) (A) (A) (A) (A) (A) (A)
                 (A) (A) (A) (A) (A) (A) (A) (A) (A) (A) (A) (A)
                 (A) (A) (A) (A) (A) (A) (A) (A) (A)
       Virtual   (A) (A) (A) (A) (A) (A) (A) (A) (A) (A) (A) (A)
                 (A) (A) (A) (A) (A) (A) (A) (A) (A) (A) (A) (A)
                 (A) (A) (A) (A) (A) (A) (A) (A) (A) (A) (A) (A)
                 (A)
 The electronic state is 3-A.
 Alpha  occ. eigenvalues --   -1.29471  -1.22333  -1.20501  -1.19967  -1.16457
 Alpha  occ. eigenvalues --   -1.14424  -1.07867  -0.97149  -0.96194  -0.94544
 Alpha  occ. eigenvalues --   -0.91758  -0.90384  -0.83655  -0.78603  -0.74777
 Alpha  occ. eigenvalues --   -0.72994  -0.71066  -0.70281  -0.68512  -0.66712
 Alpha  occ. eigenvalues --   -0.64629  -0.64176  -0.63648  -0.62303  -0.59576
 Alpha  occ. eigenvalues --   -0.57101  -0.56601  -0.56415  -0.54435  -0.53901
 Alpha  occ. eigenvalues --   -0.53242  -0.51592  -0.50783  -0.50271  -0.49315
 Alpha  occ. eigenvalues --   -0.48415  -0.47301  -0.46562  -0.45766  -0.45330
 Alpha  occ. eigenvalues --   -0.44475  -0.43785  -0.43220  -0.42029  -0.41688
 Alpha  occ. eigenvalues --   -0.36825  -0.34195
 Alpha virt. eigenvalues --   -0.04252  -0.00102   0.00363   0.02316   0.04135
 Alpha virt. eigenvalues --    0.06792   0.07209   0.08562   0.09381   0.10035
 Alpha virt. eigenvalues --    0.10313   0.10941   0.11781   0.11937   0.12444
 Alpha virt. eigenvalues --    0.13542   0.14368   0.14835   0.15642   0.16155
 Alpha virt. eigenvalues --    0.16656   0.18211   0.18270   0.18409   0.18595
 Alpha virt. eigenvalues --    0.18725   0.19852   0.20044   0.20193   0.20426
 Alpha virt. eigenvalues --    0.20950   0.21214   0.21432   0.22197   0.22262
  Beta  occ. eigenvalues --   -1.26683  -1.21893  -1.20293  -1.19441  -1.16294
  Beta  occ. eigenvalues --   -1.14111  -1.05984  -0.96898  -0.96037  -0.94086
  Beta  occ. eigenvalues --   -0.91114  -0.89676  -0.83336  -0.77732  -0.74324
  Beta  occ. eigenvalues --   -0.72566  -0.70567  -0.69724  -0.68048  -0.65549
  Beta  occ. eigenvalues --   -0.64123  -0.63870  -0.63235  -0.62173  -0.58506
  Beta  occ. eigenvalues --   -0.56700  -0.56248  -0.55483  -0.54178  -0.53592
  Beta  occ. eigenvalues --   -0.51332  -0.50659  -0.49898  -0.49284  -0.49023
  Beta  occ. eigenvalues --   -0.47645  -0.46788  -0.45333  -0.45034  -0.44142
  Beta  occ. eigenvalues --   -0.43507  -0.43481  -0.42481  -0.41396  -0.40629
  Beta virt. eigenvalues --   -0.04951  -0.02816   0.00454   0.00539   0.01607
  Beta virt. eigenvalues --    0.04075   0.04565   0.07500   0.08383   0.08784
  Beta virt. eigenvalues --    0.09717   0.10539   0.10738   0.11590   0.12070
  Beta virt. eigenvalues --    0.12420   0.13090   0.13958   0.14779   0.15183
  Beta virt. eigenvalues --    0.15943   0.17068   0.17612   0.18259   0.18327
  Beta virt. eigenvalues --    0.18589   0.18742   0.19211   0.19861   0.20084
  Beta virt. eigenvalues --    0.20201   0.20426   0.21005   0.21271   0.21423
  Beta virt. eigenvalues --    0.22285   0.23051
          Condensed to atoms (all electrons):
               1          2          3          4          5          6
     1  C    3.979246   0.000000   0.000000   0.000000   0.000000   0.000000
     2  C    0.000000   4.100468   0.000000   0.000000   0.000000   0.000000
     3  C    0.000000   0.000000   4.120137   0.000000   0.000000   0.000000
     4  C    0.000000   0.000000   0.000000   4.234760   0.000000   0.000000
     5  H    0.000000   0.000000   0.000000   0.000000   0.822242   0.000000
     6  H    0.000000   0.000000   0.000000   0.000000   0.000000   0.815990
     7  C    0.000000   0.000000   0.000000   0.000000   0.000000   0.000000
     8  H    0.000000   0.000000   0.000000   0.000000   0.000000   0.000000
     9  H    0.000000   0.000000   0.000000   0.000000   0.000000   0.000000
    10  C    0.000000   0.000000   0.000000   0.000000   0.000000   0.000000
    11  H    0.000000   0.000000   0.000000   0.000000   0.000000   0.000000
    12  C    0.000000   0.000000   0.000000   0.000000   0.000000   0.000000
    13  H    0.000000   0.000000   0.000000   0.000000   0.000000   0.000000
    14  H    0.000000   0.000000   0.000000   0.000000   0.000000   0.000000
    15  H    0.000000   0.000000   0.000000   0.000000   0.000000   0.000000
    16  N    0.000000   0.000000   0.000000   0.000000   0.000000   0.000000
    17  N    0.000000   0.000000   0.000000   0.000000   0.000000   0.000000
    18  C    0.000000   0.000000   0.000000   0.000000   0.000000   0.000000
    19  C    0.000000   0.000000   0.000000   0.000000   0.000000   0.000000
    20  O    0.000000   0.000000   0.000000   0.000000   0.000000   0.000000
    21  O    0.000000   0.000000   0.000000   0.000000   0.000000   0.000000
    22  O    0.000000   0.000000   0.000000   0.000000   0.000000   0.000000
    23  O    0.000000   0.000000   0.000000   0.000000   0.000000   0.000000
    24  C    0.000000   0.000000   0.000000   0.000000   0.000000   0.000000
    25  H    0.000000   0.000000   0.000000   0.000000   0.000000   0.000000
    26  H    0.000000   0.000000   0.000000   0.000000   0.000000   0.000000
    27  H    0.000000   0.000000   0.000000   0.000000   0.000000   0.000000
    28  C    0.000000   0.000000   0.000000   0.000000   0.000000   0.000000
    29  H    0.000000   0.000000   0.000000   0.000000   0.000000   0.000000
    30  H    0.000000   0.000000   0.000000   0.000000   0.000000   0.000000
    31  H    0.000000   0.000000   0.000000   0.000000   0.000000   0.000000
               7          8          9         10         11         12
     1  C    0.000000   0.000000   0.000000   0.000000   0.000000   0.000000
     2  C    0.000000   0.000000   0.000000   0.000000   0.000000   0.000000
     3  C    0.000000   0.000000   0.000000   0.000000   0.000000   0.000000
     4  C    0.000000   0.000000   0.000000   0.000000   0.000000   0.000000
     5  H    0.000000   0.000000   0.000000   0.000000   0.000000   0.000000
     6  H    0.000000   0.000000   0.000000   0.000000   0.000000   0.000000
     7  C    4.281155   0.000000   0.000000   0.000000   0.000000   0.000000
     8  H    0.000000   0.841559   0.000000   0.000000   0.000000   0.000000
     9  H    0.000000   0.000000   0.847042   0.000000   0.000000   0.000000
    10  C    0.000000   0.000000   0.000000   4.185145   0.000000   0.000000
    11  H    0.000000   0.000000   0.000000   0.000000   0.839341   0.000000
    12  C    0.000000   0.000000   0.000000   0.000000   0.000000   4.143118
    13  H    0.000000   0.000000   0.000000   0.000000   0.000000   0.000000
    14  H    0.000000   0.000000   0.000000   0.000000   0.000000   0.000000
    15  H    0.000000   0.000000   0.000000   0.000000   0.000000   0.000000
    16  N    0.000000   0.000000   0.000000   0.000000   0.000000   0.000000
    17  N    0.000000   0.000000   0.000000   0.000000   0.000000   0.000000
    18  C    0.000000   0.000000   0.000000   0.000000   0.000000   0.000000
    19  C    0.000000   0.000000   0.000000   0.000000   0.000000   0.000000
    20  O    0.000000   0.000000   0.000000   0.000000   0.000000   0.000000
    21  O    0.000000   0.000000   0.000000   0.000000   0.000000   0.000000
    22  O    0.000000   0.000000   0.000000   0.000000   0.000000   0.000000
    23  O    0.000000   0.000000   0.000000   0.000000   0.000000   0.000000
    24  C    0.000000   0.000000   0.000000   0.000000   0.000000   0.000000
    25  H    0.000000   0.000000   0.000000   0.000000   0.000000   0.000000
    26  H    0.000000   0.000000   0.000000   0.000000   0.000000   0.000000
    27  H    0.000000   0.000000   0.000000   0.000000   0.000000   0.000000
    28  C    0.000000   0.000000   0.000000   0.000000   0.000000   0.000000
    29  H    0.000000   0.000000   0.000000   0.000000   0.000000   0.000000
    30  H    0.000000   0.000000   0.000000   0.000000   0.000000   0.000000
    31  H    0.000000   0.000000   0.000000   0.000000   0.000000   0.000000
              13         14         15         16         17         18
     1  C    0.000000   0.000000   0.000000   0.000000   0.000000   0.000000
     2  C    0.000000   0.000000   0.000000   0.000000   0.000000   0.000000
     3  C    0.000000   0.000000   0.000000   0.000000   0.000000   0.000000
     4  C    0.000000   0.000000   0.000000   0.000000   0.000000   0.000000
     5  H    0.000000   0.000000   0.000000   0.000000   0.000000   0.000000
     6  H    0.000000   0.000000   0.000000   0.000000   0.000000   0.000000
     7  C    0.000000   0.000000   0.000000   0.000000   0.000000   0.000000
     8  H    0.000000   0.000000   0.000000   0.000000   0.000000   0.000000
     9  H    0.000000   0.000000   0.000000   0.000000   0.000000   0.000000
    10  C    0.000000   0.000000   0.000000   0.000000   0.000000   0.000000
    11  H    0.000000   0.000000   0.000000   0.000000   0.000000   0.000000
    12  C    0.000000   0.000000   0.000000   0.000000   0.000000   0.000000
    13  H    0.832140   0.000000   0.000000   0.000000   0.000000   0.000000
    14  H    0.000000   0.844960   0.000000   0.000000   0.000000   0.000000
    15  H    0.000000   0.000000   0.836422   0.000000   0.000000   0.000000
    16  N    0.000000   0.000000   0.000000   5.379142   0.000000   0.000000
    17  N    0.000000   0.000000   0.000000   0.000000   5.097996   0.000000
    18  C    0.000000   0.000000   0.000000   0.000000   0.000000   3.278412
    19  C    0.000000   0.000000   0.000000   0.000000   0.000000   0.000000
    20  O    0.000000   0.000000   0.000000   0.000000   0.000000   0.000000
    21  O    0.000000   0.000000   0.000000   0.000000   0.000000   0.000000
    22  O    0.000000   0.000000   0.000000   0.000000   0.000000   0.000000
    23  O    0.000000   0.000000   0.000000   0.000000   0.000000   0.000000
    24  C    0.000000   0.000000   0.000000   0.000000   0.000000   0.000000
    25  H    0.000000   0.000000   0.000000   0.000000   0.000000   0.000000
    26  H    0.000000   0.000000   0.000000   0.000000   0.000000   0.000000
    27  H    0.000000   0.000000   0.000000   0.000000   0.000000   0.000000
    28  C    0.000000   0.000000   0.000000   0.000000   0.000000   0.000000
    29  H    0.000000   0.000000   0.000000   0.000000   0.000000   0.000000
    30  H    0.000000   0.000000   0.000000   0.000000   0.000000   0.000000
    31  H    0.000000   0.000000   0.000000   0.000000   0.000000   0.000000
              19         20         21         22         23         24
     1  C    0.000000   0.000000   0.000000   0.000000   0.000000   0.000000
     2  C    0.000000   0.000000   0.000000   0.000000   0.000000   0.000000
     3  C    0.000000   0.000000   0.000000   0.000000   0.000000   0.000000
     4  C    0.000000   0.000000   0.000000   0.000000   0.000000   0.000000
     5  H    0.000000   0.000000   0.000000   0.000000   0.000000   0.000000
     6  H    0.000000   0.000000   0.000000   0.000000   0.000000   0.000000
     7  C    0.000000   0.000000   0.000000   0.000000   0.000000   0.000000
     8  H    0.000000   0.000000   0.000000   0.000000   0.000000   0.000000
     9  H    0.000000   0.000000   0.000000   0.000000   0.000000   0.000000
    10  C    0.000000   0.000000   0.000000   0.000000   0.000000   0.000000
    11  H    0.000000   0.000000   0.000000   0.000000   0.000000   0.000000
    12  C    0.000000   0.000000   0.000000   0.000000   0.000000   0.000000
    13  H    0.000000   0.000000   0.000000   0.000000   0.000000   0.000000
    14  H    0.000000   0.000000   0.000000   0.000000   0.000000   0.000000
    15  H    0.000000   0.000000   0.000000   0.000000   0.000000   0.000000
    16  N    0.000000   0.000000   0.000000   0.000000   0.000000   0.000000
    17  N    0.000000   0.000000   0.000000   0.000000   0.000000   0.000000
    18  C    0.000000   0.000000   0.000000   0.000000   0.000000   0.000000
    19  C    3.290382   0.000000   0.000000   0.000000   0.000000   0.000000
    20  O    0.000000   6.492856   0.000000   0.000000   0.000000   0.000000
    21  O    0.000000   0.000000   6.537061   0.000000   0.000000   0.000000
    22  O    0.000000   0.000000   0.000000   6.405699   0.000000   0.000000
    23  O    0.000000   0.000000   0.000000   0.000000   6.435318   0.000000
    24  C    0.000000   0.000000   0.000000   0.000000   0.000000   4.175231
    25  H    0.000000   0.000000   0.000000   0.000000   0.000000   0.000000
    26  H    0.000000   0.000000   0.000000   0.000000   0.000000   0.000000
    27  H    0.000000   0.000000   0.000000   0.000000   0.000000   0.000000
    28  C    0.000000   0.000000   0.000000   0.000000   0.000000   0.000000
    29  H    0.000000   0.000000   0.000000   0.000000   0.000000   0.000000
    30  H    0.000000   0.000000   0.000000   0.000000   0.000000   0.000000
    31  H    0.000000   0.000000   0.000000   0.000000   0.000000   0.000000
              25         26         27         28         29         30
     1  C    0.000000   0.000000   0.000000   0.000000   0.000000   0.000000
     2  C    0.000000   0.000000   0.000000   0.000000   0.000000   0.000000
     3  C    0.000000   0.000000   0.000000   0.000000   0.000000   0.000000
     4  C    0.000000   0.000000   0.000000   0.000000   0.000000   0.000000
     5  H    0.000000   0.000000   0.000000   0.000000   0.000000   0.000000
     6  H    0.000000   0.000000   0.000000   0.000000   0.000000   0.000000
     7  C    0.000000   0.000000   0.000000   0.000000   0.000000   0.000000
     8  H    0.000000   0.000000   0.000000   0.000000   0.000000   0.000000
     9  H    0.000000   0.000000   0.000000   0.000000   0.000000   0.000000
    10  C    0.000000   0.000000   0.000000   0.000000   0.000000   0.000000
    11  H    0.000000   0.000000   0.000000   0.000000   0.000000   0.000000
    12  C    0.000000   0.000000   0.000000   0.000000   0.000000   0.000000
    13  H    0.000000   0.000000   0.000000   0.000000   0.000000   0.000000
    14  H    0.000000   0.000000   0.000000   0.000000   0.000000   0.000000
    15  H    0.000000   0.000000   0.000000   0.000000   0.000000   0.000000
    16  N    0.000000   0.000000   0.000000   0.000000   0.000000   0.000000
    17  N    0.000000   0.000000   0.000000   0.000000   0.000000   0.000000
    18  C    0.000000   0.000000   0.000000   0.000000   0.000000   0.000000
    19  C    0.000000   0.000000   0.000000   0.000000   0.000000   0.000000
    20  O    0.000000   0.000000   0.000000   0.000000   0.000000   0.000000
    21  O    0.000000   0.000000   0.000000   0.000000   0.000000   0.000000
    22  O    0.000000   0.000000   0.000000   0.000000   0.000000   0.000000
    23  O    0.000000   0.000000   0.000000   0.000000   0.000000   0.000000
    24  C    0.000000   0.000000   0.000000   0.000000   0.000000   0.000000
    25  H    0.826794   0.000000   0.000000   0.000000   0.000000   0.000000
    26  H    0.000000   0.844193   0.000000   0.000000   0.000000   0.000000
    27  H    0.000000   0.000000   0.843223   0.000000   0.000000   0.000000
    28  C    0.000000   0.000000   0.000000   4.171749   0.000000   0.000000
    29  H    0.000000   0.000000   0.000000   0.000000   0.820114   0.000000
    30  H    0.000000   0.000000   0.000000   0.000000   0.000000   0.838805
    31  H    0.000000   0.000000   0.000000   0.000000   0.000000   0.000000
              31
     1  C    0.000000
     2  C    0.000000
     3  C    0.000000
     4  C    0.000000
     5  H    0.000000
     6  H    0.000000
     7  C    0.000000
     8  H    0.000000
     9  H    0.000000
    10  C    0.000000
    11  H    0.000000
    12  C    0.000000
    13  H    0.000000
    14  H    0.000000
    15  H    0.000000
    16  N    0.000000
    17  N    0.000000
    18  C    0.000000
    19  C    0.000000
    20  O    0.000000
    21  O    0.000000
    22  O    0.000000
    23  O    0.000000
    24  C    0.000000
    25  H    0.000000
    26  H    0.000000
    27  H    0.000000
    28  C    0.000000
    29  H    0.000000
    30  H    0.000000
    31  H    0.839299
          Atomic-Atomic Spin Densities.
               1          2          3          4          5          6
     1  C   -0.004149   0.000000   0.000000   0.000000   0.000000   0.000000
     2  C    0.000000  -0.046327   0.000000   0.000000   0.000000   0.000000
     3  C    0.000000   0.000000   0.063582   0.000000   0.000000   0.000000
     4  C    0.000000   0.000000   0.000000   0.066300   0.000000   0.000000
     5  H    0.000000   0.000000   0.000000   0.000000   0.002665   0.000000
     6  H    0.000000   0.000000   0.000000   0.000000   0.000000  -0.001829
     7  C    0.000000   0.000000   0.000000   0.000000   0.000000   0.000000
     8  H    0.000000   0.000000   0.000000   0.000000   0.000000   0.000000
     9  H    0.000000   0.000000   0.000000   0.000000   0.000000   0.000000
    10  C    0.000000   0.000000   0.000000   0.000000   0.000000   0.000000
    11  H    0.000000   0.000000   0.000000   0.000000   0.000000   0.000000
    12  C    0.000000   0.000000   0.000000   0.000000   0.000000   0.000000
    13  H    0.000000   0.000000   0.000000   0.000000   0.000000   0.000000
    14  H    0.000000   0.000000   0.000000   0.000000   0.000000   0.000000
    15  H    0.000000   0.000000   0.000000   0.000000   0.000000   0.000000
    16  N    0.000000   0.000000   0.000000   0.000000   0.000000   0.000000
    17  N    0.000000   0.000000   0.000000   0.000000   0.000000   0.000000
    18  C    0.000000   0.000000   0.000000   0.000000   0.000000   0.000000
    19  C    0.000000   0.000000   0.000000   0.000000   0.000000   0.000000
    20  O    0.000000   0.000000   0.000000   0.000000   0.000000   0.000000
    21  O    0.000000   0.000000   0.000000   0.000000   0.000000   0.000000
    22  O    0.000000   0.000000   0.000000   0.000000   0.000000   0.000000
    23  O    0.000000   0.000000   0.000000   0.000000   0.000000   0.000000
    24  C    0.000000   0.000000   0.000000   0.000000   0.000000   0.000000
    25  H    0.000000   0.000000   0.000000   0.000000   0.000000   0.000000
    26  H    0.000000   0.000000   0.000000   0.000000   0.000000   0.000000
    27  H    0.000000   0.000000   0.000000   0.000000   0.000000   0.000000
    28  C    0.000000   0.000000   0.000000   0.000000   0.000000   0.000000
    29  H    0.000000   0.000000   0.000000   0.000000   0.000000   0.000000
    30  H    0.000000   0.000000   0.000000   0.000000   0.000000   0.000000
    31  H    0.000000   0.000000   0.000000   0.000000   0.000000   0.000000
               7          8          9         10         11         12
     1  C    0.000000   0.000000   0.000000   0.000000   0.000000   0.000000
     2  C    0.000000   0.000000   0.000000   0.000000   0.000000   0.000000
     3  C    0.000000   0.000000   0.000000   0.000000   0.000000   0.000000
     4  C    0.000000   0.000000   0.000000   0.000000   0.000000   0.000000
     5  H    0.000000   0.000000   0.000000   0.000000   0.000000   0.000000
     6  H    0.000000   0.000000   0.000000   0.000000   0.000000   0.000000
     7  C    0.026710   0.000000   0.000000   0.000000   0.000000   0.000000
     8  H    0.000000  -0.000870   0.000000   0.000000   0.000000   0.000000
     9  H    0.000000   0.000000  -0.000653   0.000000   0.000000   0.000000
    10  C    0.000000   0.000000   0.000000   1.014003   0.000000   0.000000
    11  H    0.000000   0.000000   0.000000   0.000000  -0.029772   0.000000
    12  C    0.000000   0.000000   0.000000   0.000000   0.000000  -0.102360
    13  H    0.000000   0.000000   0.000000   0.000000   0.000000   0.000000
    14  H    0.000000   0.000000   0.000000   0.000000   0.000000   0.000000
    15  H    0.000000   0.000000   0.000000   0.000000   0.000000   0.000000
    16  N    0.000000   0.000000   0.000000   0.000000   0.000000   0.000000
    17  N    0.000000   0.000000   0.000000   0.000000   0.000000   0.000000
    18  C    0.000000   0.000000   0.000000   0.000000   0.000000   0.000000
    19  C    0.000000   0.000000   0.000000   0.000000   0.000000   0.000000
    20  O    0.000000   0.000000   0.000000   0.000000   0.000000   0.000000
    21  O    0.000000   0.000000   0.000000   0.000000   0.000000   0.000000
    22  O    0.000000   0.000000   0.000000   0.000000   0.000000   0.000000
    23  O    0.000000   0.000000   0.000000   0.000000   0.000000   0.000000
    24  C    0.000000   0.000000   0.000000   0.000000   0.000000   0.000000
    25  H    0.000000   0.000000   0.000000   0.000000   0.000000   0.000000
    26  H    0.000000   0.000000   0.000000   0.000000   0.000000   0.000000
    27  H    0.000000   0.000000   0.000000   0.000000   0.000000   0.000000
    28  C    0.000000   0.000000   0.000000   0.000000   0.000000   0.000000
    29  H    0.000000   0.000000   0.000000   0.000000   0.000000   0.000000
    30  H    0.000000   0.000000   0.000000   0.000000   0.000000   0.000000
    31  H    0.000000   0.000000   0.000000   0.000000   0.000000   0.000000
              13         14         15         16         17         18
     1  C    0.000000   0.000000   0.000000   0.000000   0.000000   0.000000
     2  C    0.000000   0.000000   0.000000   0.000000   0.000000   0.000000
     3  C    0.000000   0.000000   0.000000   0.000000   0.000000   0.000000
     4  C    0.000000   0.000000   0.000000   0.000000   0.000000   0.000000
     5  H    0.000000   0.000000   0.000000   0.000000   0.000000   0.000000
     6  H    0.000000   0.000000   0.000000   0.000000   0.000000   0.000000
     7  C    0.000000   0.000000   0.000000   0.000000   0.000000   0.000000
     8  H    0.000000   0.000000   0.000000   0.000000   0.000000   0.000000
     9  H    0.000000   0.000000   0.000000   0.000000   0.000000   0.000000
    10  C    0.000000   0.000000   0.000000   0.000000   0.000000   0.000000
    11  H    0.000000   0.000000   0.000000   0.000000   0.000000   0.000000
    12  C    0.000000   0.000000   0.000000   0.000000   0.000000   0.000000
    13  H    0.002955   0.000000   0.000000   0.000000   0.000000   0.000000
    14  H    0.000000   0.001567   0.000000   0.000000   0.000000   0.000000
    15  H    0.000000   0.000000  -0.001495   0.000000   0.000000   0.000000
    16  N    0.000000   0.000000   0.000000   0.625372   0.000000   0.000000
    17  N    0.000000   0.000000   0.000000   0.000000   0.377915   0.000000
    18  C    0.000000   0.000000   0.000000   0.000000   0.000000  -0.034363
    19  C    0.000000   0.000000   0.000000   0.000000   0.000000   0.000000
    20  O    0.000000   0.000000   0.000000   0.000000   0.000000   0.000000
    21  O    0.000000   0.000000   0.000000   0.000000   0.000000   0.000000
    22  O    0.000000   0.000000   0.000000   0.000000   0.000000   0.000000
    23  O    0.000000   0.000000   0.000000   0.000000   0.000000   0.000000
    24  C    0.000000   0.000000   0.000000   0.000000   0.000000   0.000000
    25  H    0.000000   0.000000   0.000000   0.000000   0.000000   0.000000
    26  H    0.000000   0.000000   0.000000   0.000000   0.000000   0.000000
    27  H    0.000000   0.000000   0.000000   0.000000   0.000000   0.000000
    28  C    0.000000   0.000000   0.000000   0.000000   0.000000   0.000000
    29  H    0.000000   0.000000   0.000000   0.000000   0.000000   0.000000
    30  H    0.000000   0.000000   0.000000   0.000000   0.000000   0.000000
    31  H    0.000000   0.000000   0.000000   0.000000   0.000000   0.000000
              19         20         21         22         23         24
     1  C    0.000000   0.000000   0.000000   0.000000   0.000000   0.000000
     2  C    0.000000   0.000000   0.000000   0.000000   0.000000   0.000000
     3  C    0.000000   0.000000   0.000000   0.000000   0.000000   0.000000
     4  C    0.000000   0.000000   0.000000   0.000000   0.000000   0.000000
     5  H    0.000000   0.000000   0.000000   0.000000   0.000000   0.000000
     6  H    0.000000   0.000000   0.000000   0.000000   0.000000   0.000000
     7  C    0.000000   0.000000   0.000000   0.000000   0.000000   0.000000
     8  H    0.000000   0.000000   0.000000   0.000000   0.000000   0.000000
     9  H    0.000000   0.000000   0.000000   0.000000   0.000000   0.000000
    10  C    0.000000   0.000000   0.000000   0.000000   0.000000   0.000000
    11  H    0.000000   0.000000   0.000000   0.000000   0.000000   0.000000
    12  C    0.000000   0.000000   0.000000   0.000000   0.000000   0.000000
    13  H    0.000000   0.000000   0.000000   0.000000   0.000000   0.000000
    14  H    0.000000   0.000000   0.000000   0.000000   0.000000   0.000000
    15  H    0.000000   0.000000   0.000000   0.000000   0.000000   0.000000
    16  N    0.000000   0.000000   0.000000   0.000000   0.000000   0.000000
    17  N    0.000000   0.000000   0.000000   0.000000   0.000000   0.000000
    18  C    0.000000   0.000000   0.000000   0.000000   0.000000   0.000000
    19  C   -0.018421   0.000000   0.000000   0.000000   0.000000   0.000000
    20  O    0.000000   0.039051   0.000000   0.000000   0.000000   0.000000
    21  O    0.000000   0.000000  -0.002536   0.000000   0.000000   0.000000
    22  O    0.000000   0.000000   0.000000   0.001496   0.000000   0.000000
    23  O    0.000000   0.000000   0.000000   0.000000   0.022203   0.000000
    24  C    0.000000   0.000000   0.000000   0.000000   0.000000  -0.000214
    25  H    0.000000   0.000000   0.000000   0.000000   0.000000   0.000000
    26  H    0.000000   0.000000   0.000000   0.000000   0.000000   0.000000
    27  H    0.000000   0.000000   0.000000   0.000000   0.000000   0.000000
    28  C    0.000000   0.000000   0.000000   0.000000   0.000000   0.000000
    29  H    0.000000   0.000000   0.000000   0.000000   0.000000   0.000000
    30  H    0.000000   0.000000   0.000000   0.000000   0.000000   0.000000
    31  H    0.000000   0.000000   0.000000   0.000000   0.000000   0.000000
              25         26         27         28         29         30
     1  C    0.000000   0.000000   0.000000   0.000000   0.000000   0.000000
     2  C    0.000000   0.000000   0.000000   0.000000   0.000000   0.000000
     3  C    0.000000   0.000000   0.000000   0.000000   0.000000   0.000000
     4  C    0.000000   0.000000   0.000000   0.000000   0.000000   0.000000
     5  H    0.000000   0.000000   0.000000   0.000000   0.000000   0.000000
     6  H    0.000000   0.000000   0.000000   0.000000   0.000000   0.000000
     7  C    0.000000   0.000000   0.000000   0.000000   0.000000   0.000000
     8  H    0.000000   0.000000   0.000000   0.000000   0.000000   0.000000
     9  H    0.000000   0.000000   0.000000   0.000000   0.000000   0.000000
    10  C    0.000000   0.000000   0.000000   0.000000   0.000000   0.000000
    11  H    0.000000   0.000000   0.000000   0.000000   0.000000   0.000000
    12  C    0.000000   0.000000   0.000000   0.000000   0.000000   0.000000
    13  H    0.000000   0.000000   0.000000   0.000000   0.000000   0.000000
    14  H    0.000000   0.000000   0.000000   0.000000   0.000000   0.000000
    15  H    0.000000   0.000000   0.000000   0.000000   0.000000   0.000000
    16  N    0.000000   0.000000   0.000000   0.000000   0.000000   0.000000
    17  N    0.000000   0.000000   0.000000   0.000000   0.000000   0.000000
    18  C    0.000000   0.000000   0.000000   0.000000   0.000000   0.000000
    19  C    0.000000   0.000000   0.000000   0.000000   0.000000   0.000000
    20  O    0.000000   0.000000   0.000000   0.000000   0.000000   0.000000
    21  O    0.000000   0.000000   0.000000   0.000000   0.000000   0.000000
    22  O    0.000000   0.000000   0.000000   0.000000   0.000000   0.000000
    23  O    0.000000   0.000000   0.000000   0.000000   0.000000   0.000000
    24  C    0.000000   0.000000   0.000000   0.000000   0.000000   0.000000
    25  H    0.000990   0.000000   0.000000   0.000000   0.000000   0.000000
    26  H    0.000000   0.000116   0.000000   0.000000   0.000000   0.000000
    27  H    0.000000   0.000000  -0.000048   0.000000   0.000000   0.000000
    28  C    0.000000   0.000000   0.000000  -0.002160   0.000000   0.000000
    29  H    0.000000   0.000000   0.000000   0.000000  -0.000223   0.000000
    30  H    0.000000   0.000000   0.000000   0.000000   0.000000   0.000225
    31  H    0.000000   0.000000   0.000000   0.000000   0.000000   0.000000
              31
     1  C    0.000000
     2  C    0.000000
     3  C    0.000000
     4  C    0.000000
     5  H    0.000000
     6  H    0.000000
     7  C    0.000000
     8  H    0.000000
     9  H    0.000000
    10  C    0.000000
    11  H    0.000000
    12  C    0.000000
    13  H    0.000000
    14  H    0.000000
    15  H    0.000000
    16  N    0.000000
    17  N    0.000000
    18  C    0.000000
    19  C    0.000000
    20  O    0.000000
    21  O    0.000000
    22  O    0.000000
    23  O    0.000000
    24  C    0.000000
    25  H    0.000000
    26  H    0.000000
    27  H    0.000000
    28  C    0.000000
    29  H    0.000000
    30  H    0.000000
    31  H    0.000270
 Mulliken charges and spin densities:
               1          2
     1  C    0.020754  -0.004149
     2  C   -0.100468  -0.046327
     3  C   -0.120137   0.063582
     4  C   -0.234760   0.066300
     5  H    0.177758   0.002665
     6  H    0.184010  -0.001829
     7  C   -0.281155   0.026710
     8  H    0.158441  -0.000870
     9  H    0.152958  -0.000653
    10  C   -0.185145   1.014003
    11  H    0.160659  -0.029772
    12  C   -0.143118  -0.102360
    13  H    0.167860   0.002955
    14  H    0.155040   0.001567
    15  H    0.163578  -0.001495
    16  N   -0.379142   0.625372
    17  N   -0.097996   0.377915
    18  C    0.721588  -0.034363
    19  C    0.709618  -0.018421
    20  O   -0.492856   0.039051
    21  O   -0.537061  -0.002536
    22  O   -0.405699   0.001496
    23  O   -0.435318   0.022203
    24  C   -0.175231  -0.000214
    25  H    0.173206   0.000990
    26  H    0.155807   0.000116
    27  H    0.156777  -0.000048
    28  C   -0.171749  -0.002160
    29  H    0.179886  -0.000223
    30  H    0.161195   0.000225
    31  H    0.160701   0.000270
 Sum of Mulliken charges =   0.00000   2.00000
 Mulliken charges and spin densities with hydrogens summed into heavy atoms:
               1          2
     1  C    0.198512  -0.001484
     2  C    0.054572  -0.044761
     3  C    0.043442   0.062087
     4  C   -0.050749   0.064472
     7  C    0.030244   0.025186
    10  C   -0.024486   0.984231
    12  C    0.024742  -0.099405
    16  N   -0.379142   0.625372
    17  N   -0.097996   0.377915
    18  C    0.721588  -0.034363
    19  C    0.709618  -0.018421
    20  O   -0.492856   0.039051
    21  O   -0.537061  -0.002536
    22  O   -0.405699   0.001496
    23  O   -0.435318   0.022203
    24  C    0.310559   0.000843
    28  C    0.330032  -0.001887
 Charge=              0.0000 electrons
 Dipole moment (field-independent basis, Debye):
    X=              1.7880    Y=              5.6472    Z=             -4.3504  Tot=              7.3494
 N-N= 7.365317123247D+02 E-N=-1.350542352193D+03  KE=-5.954036328528D+01
 D1PCM: C-PCM CHGder 1st derivatives, ID1Alg=3 FixD1E=F DoIter=F DoCFld=F I1PDM=0.
 Calling FoFJK, ICntrl=      2127 FMM=F ISym2X=0 I1Cent= 0 IOpClX= 1 NMat=1 NMatS=1 NMatT=0.
 ***** Axes restored to original set *****
 -------------------------------------------------------------------
 Center     Atomic                   Forces (Hartrees/Bohr)
 Number     Number              X              Y              Z
 -------------------------------------------------------------------
      1        6          -0.000667251    0.001012235   -0.000113319
      2        6          -0.000061467   -0.000240240    0.000283969
      3        6           0.000039061    0.000112076   -0.000004518
      4        6           0.000166297   -0.000553333    0.000195098
      5        1           0.000301462   -0.000081502   -0.000434957
      6        1          -0.000175808    0.000259405   -0.000261097
      7        6          -0.000087718   -0.000597863    0.000028565
      8        1           0.000096579    0.000166440    0.000138140
      9        1           0.000238482    0.000595999   -0.000156577
     10        6          -0.000174168   -0.000270623    0.000074446
     11        1           0.000257747    0.000245259   -0.000064499
     12        6           0.000053626   -0.000394237    0.000431347
     13        1          -0.000296584    0.000157094   -0.000288085
     14        1           0.000290603    0.000092690    0.000131266
     15        1          -0.000179646    0.000181253   -0.000212827
     16        7           0.000183067   -0.000209188    0.000307815
     17        7          -0.001693775   -0.001020544    0.000859251
     18        6           0.000586707    0.000641389   -0.006411207
     19        6           0.004181858    0.008759707   -0.003639700
     20        8          -0.000316254   -0.004661668    0.001747547
     21        8          -0.000894304   -0.000614027    0.003012847
     22        8          -0.004213929   -0.003313726    0.001662444
     23        8           0.002388364   -0.000083522    0.003511696
     24        6          -0.001152061   -0.000378747    0.000495563
     25        1          -0.000181981    0.000145120   -0.000482703
     26        1          -0.000126783   -0.000096025   -0.000313501
     27        1          -0.000216481    0.000347270   -0.000397023
     28        6           0.000961972   -0.001225141    0.000352093
     29        1           0.000183346    0.000481851   -0.000195467
     30        1           0.000277654    0.000338584    0.000058464
     31        1           0.000231382    0.000204012   -0.000315070
 -------------------------------------------------------------------
 Cartesian Forces:  Max     0.008759707 RMS     0.001635792

 GradGradGradGradGradGradGradGradGradGradGradGradGradGradGradGradGradGrad
 Berny optimization.
 FormGI is forming the generalized inverse of G from B-inverse, IUseBI=4.
 Internal  Forces:  Max     0.004662945 RMS     0.000725865
 Search for a local minimum.
 Step number   1 out of a maximum of  186
 All quantities printed in internal units (Hartrees-Bohrs-Radians)
 Mixed Optimization -- En-DIIS/RFO-DIIS
 Second derivative matrix not updated -- first step.
 ITU=  0
     Eigenvalues ---    0.00411   0.00800   0.00872   0.00886   0.00915
     Eigenvalues ---    0.00930   0.00952   0.01212   0.01275   0.01310
     Eigenvalues ---    0.01565   0.01677   0.01821   0.02004   0.02030
     Eigenvalues ---    0.02052   0.02419   0.02626   0.03368   0.04102
     Eigenvalues ---    0.04549   0.04984   0.05310   0.05637   0.05795
     Eigenvalues ---    0.05939   0.06916   0.08052   0.08233   0.09803
     Eigenvalues ---    0.10157   0.10201   0.10937   0.10941   0.10970
     Eigenvalues ---    0.12139   0.14112   0.15972   0.15994   0.16000
     Eigenvalues ---    0.16000   0.16000   0.16000   0.16000   0.16000
     Eigenvalues ---    0.19080   0.20285   0.22695   0.24349   0.24778
     Eigenvalues ---    0.24863   0.24913   0.24995   0.25000   0.25000
     Eigenvalues ---    0.25000   0.25000   0.25000   0.26021   0.26584
     Eigenvalues ---    0.27560   0.28740   0.31471   0.32007   0.32715
     Eigenvalues ---    0.33681   0.33805   0.33929   0.34058   0.34257
     Eigenvalues ---    0.34269   0.34280   0.34318   0.34783   0.35850
     Eigenvalues ---    0.36106   0.36151   0.36852   0.37121   0.37475
     Eigenvalues ---    0.38999   0.41150   0.49769   0.50133   0.63183
     Eigenvalues ---    1.00855   1.04199
 RFO step:  Lambda=-3.37983396D-04 EMin= 4.11201113D-03
 Linear search not attempted -- first point.
 Iteration  1 RMS(Cart)=  0.03153886 RMS(Int)=  0.00033792
 Iteration  2 RMS(Cart)=  0.00044754 RMS(Int)=  0.00004840
 Iteration  3 RMS(Cart)=  0.00000011 RMS(Int)=  0.00004840
 Variable       Old X    -DE/DX   Delta X   Delta X   Delta X     New X
                                 (Linear)    (Quad)   (Total)
    R1        3.00183   0.00015   0.00000   0.00049   0.00049   3.00232
    R2        2.91007   0.00001   0.00000  -0.00045  -0.00044   2.90963
    R3        2.11823   0.00052   0.00000   0.00165   0.00165   2.11988
    R4        2.82856   0.00079   0.00000   0.00242   0.00242   2.83097
    R5        2.96055  -0.00012   0.00000  -0.00037  -0.00037   2.96018
    R6        2.85868  -0.00001   0.00000  -0.00015  -0.00015   2.85853
    R7        2.06029   0.00032   0.00000   0.00091   0.00091   2.06120
    R8        2.89871   0.00017   0.00000   0.00065   0.00065   2.89936
    R9        2.91075   0.00028   0.00000   0.00083   0.00083   2.91157
   R10        2.92877  -0.00023   0.00000  -0.00115  -0.00115   2.92763
   R11        2.03916   0.00011   0.00000   0.00030   0.00030   2.03946
   R12        2.04317   0.00014   0.00000   0.00039   0.00039   2.04357
   R13        2.94189  -0.00010   0.00000   0.00002   0.00002   2.94190
   R14        2.07871   0.00021   0.00000   0.00063   0.00063   2.07934
   R15        2.07661  -0.00060   0.00000  -0.00177  -0.00177   2.07484
   R16        1.99637   0.00035   0.00000   0.00090   0.00090   1.99727
   R17        2.80009   0.00008   0.00000   0.00078   0.00078   2.80087
   R18        2.03847   0.00043   0.00000   0.00118   0.00118   2.03965
   R19        2.48507  -0.00033   0.00000  -0.00053  -0.00053   2.48454
   R20        2.70019  -0.00035   0.00000  -0.00085  -0.00085   2.69934
   R21        2.75664   0.00101   0.00000   0.00273   0.00273   2.75936
   R22        2.28298   0.00289   0.00000   0.00286   0.00286   2.28584
   R23        2.60100  -0.00288   0.00000  -0.00578  -0.00578   2.59521
   R24        2.27003   0.00465   0.00000   0.00446   0.00446   2.27449
   R25        2.59731  -0.00466   0.00000  -0.00929  -0.00929   2.58802
   R26        2.76071   0.00166   0.00000   0.00451   0.00451   2.76521
   R27        2.75136   0.00176   0.00000   0.00468   0.00468   2.75604
   R28        2.07233   0.00047   0.00000   0.00137   0.00137   2.07370
   R29        2.06859  -0.00004   0.00000  -0.00011  -0.00011   2.06848
   R30        2.06796   0.00028   0.00000   0.00080   0.00080   2.06876
   R31        2.07449   0.00054   0.00000   0.00159   0.00159   2.07608
   R32        2.06898   0.00008   0.00000   0.00022   0.00022   2.06920
   R33        2.06878   0.00009   0.00000   0.00025   0.00025   2.06903
    A1        1.69908   0.00003   0.00000   0.00100   0.00100   1.70008
    A2        1.94516  -0.00001   0.00000  -0.00140  -0.00140   1.94375
    A3        1.97979   0.00005   0.00000   0.00194   0.00194   1.98172
    A4        1.94553   0.00002   0.00000  -0.00045  -0.00044   1.94509
    A5        2.03462   0.00010   0.00000   0.00230   0.00229   2.03691
    A6        1.85942  -0.00018   0.00000  -0.00310  -0.00310   1.85632
    A7        1.78474   0.00012   0.00000   0.00293   0.00292   1.78766
    A8        1.71478  -0.00012   0.00000  -0.00298  -0.00298   1.71180
    A9        2.03032   0.00005   0.00000   0.00100   0.00099   2.03131
   A10        1.74973  -0.00003   0.00000  -0.00133  -0.00133   1.74840
   A11        2.04732   0.00000   0.00000   0.00070   0.00070   2.04802
   A12        2.07995  -0.00002   0.00000  -0.00060  -0.00060   2.07935
   A13        1.86988  -0.00001   0.00000   0.00035   0.00035   1.87022
   A14        2.16215  -0.00008   0.00000   0.00044   0.00044   2.16259
   A15        1.85176   0.00000   0.00000  -0.00088  -0.00088   1.85088
   A16        2.09812   0.00018   0.00000   0.00164   0.00164   2.09975
   A17        2.16800  -0.00017   0.00000  -0.00269  -0.00269   2.16531
   A18        1.87978   0.00000   0.00000   0.00134   0.00133   1.88111
   A19        2.09816   0.00014   0.00000   0.00172   0.00169   2.09985
   A20        1.83030   0.00000   0.00000  -0.00261  -0.00262   1.82768
   A21        2.18114  -0.00002   0.00000   0.00159   0.00158   2.18272
   A22        2.16097  -0.00017   0.00000  -0.00367  -0.00367   2.15730
   A23        1.70168  -0.00002   0.00000   0.00050   0.00049   1.70218
   A24        1.96143  -0.00006   0.00000  -0.00172  -0.00172   1.95971
   A25        1.98566  -0.00007   0.00000  -0.00078  -0.00078   1.98488
   A26        1.96553   0.00005   0.00000   0.00011   0.00011   1.96564
   A27        1.98109   0.00015   0.00000   0.00284   0.00284   1.98393
   A28        1.86871  -0.00005   0.00000  -0.00084  -0.00085   1.86786
   A29        2.24689  -0.00009   0.00000  -0.00043  -0.00043   2.24646
   A30        1.78157   0.00004   0.00000   0.00002   0.00002   1.78159
   A31        2.25426   0.00006   0.00000   0.00049   0.00049   2.25475
   A32        1.83409  -0.00001   0.00000   0.00010   0.00010   1.83419
   A33        2.17167  -0.00006   0.00000  -0.00005  -0.00005   2.17162
   A34        1.83795  -0.00002   0.00000   0.00054   0.00054   1.83848
   A35        2.15436  -0.00010   0.00000  -0.00126  -0.00126   2.15310
   A36        2.13835   0.00008   0.00000   0.00028   0.00028   2.13863
   A37        2.18312   0.00040   0.00000   0.00161   0.00161   2.18473
   A38        2.25097   0.00094   0.00000   0.00448   0.00444   2.25542
   A39        2.05737  -0.00003   0.00000   0.00052   0.00048   2.05785
   A40        1.96589  -0.00089   0.00000  -0.00288  -0.00292   1.96296
   A41        2.18373  -0.00136   0.00000  -0.00756  -0.00790   2.17584
   A42        1.92055   0.00010   0.00000  -0.00173  -0.00208   1.91847
[...]
 0000984,-0.00001907,-0.00000222,0.00002844,0.00003527,-0.00003862,0.00
 001715,-0.00000909,0.00002281,-0.00002555,0.00000126,-0.00000783,0.000
 03532,-0.00001510,-0.00001487,0.00057090,-0.00020104,0.00041262,0.0003
 9882,-0.00003425,-0.00005690,-0.00202664,-0.00042952,-0.00396152,-0.00
 071664,0.00034700,-0.00004029,0.00015899,-0.00018623,0.00004900,-0.000
 23485,0.00013658,0.00149573,0.00020569,-0.00000021,-0.00002536,-0.0171
 4463,-0.00250608,-0.01224778,-0.01127542,-0.01901278,-0.21325311,0.024
 45209,0.02435669,0.25648681,0.00004132,0.00003728,0.00009759,-0.000001
 68,0.00001586,-0.00002243,-0.00000877,0.00000644,-0.00000123,0.0000327
 8,0.00000056,0.00000363,-0.00000245,-0.00001175,0.00001489,-0.00005245
 ,-0.00002337,0.00002164,0.00000249,0.00001494,0.00001209,0.00000019,-0
 .00000376,-0.00000391,-0.00000233,-0.00000624,-0.00001179,0.00000397,0
 .00000603,0.00000519,-0.00000368,-0.00000303,-0.00000095,-0.00000251,0
 .00000583,-0.00000683,0.00000517,-0.00000350,0.00000231,-0.00000736,-0
 .00000049,-0.00000286,0.00000392,-0.00001837,-0.00000780,0.00028256,0.
 00068139,-0.00000766,0.00052723,-0.00009631,-0.00001976,-0.00229276,-0
 .00286061,0.00069832,-0.00028305,0.00018892,-0.00000631,0.00005232,-0.
 00007093,0.00001646,-0.00000050,0.00003119,0.00064975,0.00009522,-0.00
 000353,-0.00001160,-0.03408954,-0.02412325,0.00832630,-0.05076478,-0.0
 4406174,0.02619580,0.00381712,-0.00126704,0.00267271,0.07684077,0.0000
 8334,-0.00007877,0.00005165,0.00000390,0.00001196,-0.00003313,-0.00001
 559,-0.00003211,-0.00001116,-0.00000081,0.00012670,-0.00001942,-0.0000
 2278,0.00000890,0.00003505,-0.00001582,-0.00004237,0.00005494,0.000002
 77,0.00003541,0.00003629,0.00000154,-0.00000882,-0.00001087,-0.0000018
 4,-0.00001166,-0.00002735,-0.00000468,0.00001982,0.00001022,-0.0000088
 2,-0.00001271,-0.00000129,0.00001629,0.00002924,-0.00003885,0.00001406
 ,-0.00000574,0.00001818,-0.00001897,-0.00000078,-0.00000659,0.00002401
 ,-0.00001119,-0.00000879,0.00060762,-0.00010544,0.00039056,0.00038034,
 -0.00006244,-0.00004443,-0.00268325,-0.00040990,-0.00288730,-0.0006214
 2,0.00029140,-0.00002524,0.00013362,-0.00014754,0.00003624,0.00021261,
 -0.00004630,0.00073494,0.00018568,0.00000162,-0.00002379,-0.00976007,-
 0.00232530,0.00322838,-0.05138903,-0.15299537,0.07145555,-0.00049562,0
 .00139774,0.00492185,0.06612072,0.17781667,-0.00003148,0.00004323,0.00
 000873,-0.00000154,-0.00000259,0.00001092,0.00000979,0.00003410,0.0000
 0126,0.00000123,-0.00007593,-0.00000630,0.00001010,-0.00000807,-0.0000
 0999,0.00000462,0.00001427,-0.00000392,0.00000146,-0.00000893,-0.00001
 487,-0.00000052,0.00000312,0.00000380,0.00000118,0.00000228,0.00000884
 ,0.00000376,-0.00000846,-0.00000193,0.00000305,0.00000501,0.00000041,-
 0.00001479,-0.00001089,0.00002408,-0.00000455,0.00000143,-0.00000768,0
 .00000632,0.00000032,0.00000241,-0.00000856,-0.00000043,0.00000188,-0.
 00016805,0.00041425,-0.00036263,0.00004601,-0.00005332,0.00003779,-0.0
 0161092,-0.00120331,0.00289488,0.00019148,-0.00006445,0.00001272,-0.00
 004206,0.00004655,-0.00001182,0.00080218,0.00027642,-0.00021672,-0.000
 04286,-0.00000448,0.00000379,-0.00101416,-0.00193749,0.00203546,0.0324
 0203,0.07378215,-0.07858479,0.00661283,0.01811803,-0.01707327,-0.03615
 709,-0.08653347,0.08580742,0.00008626,-0.00003945,0.00004089,0.0000171
 3,0.00000767,-0.00001285,0.00002970,-0.00001207,-0.00001598,0.00000579
 ,0.00015475,-0.00001319,-0.00001213,0.00000794,0.00002544,-0.00037039,
 -0.00022373,0.00018297,0.00001506,0.00003683,0.00003757,0.00000423,-0.
 00001300,-0.00001154,-0.00000344,-0.00000305,-0.00002325,-0.00001798,0
 .00002340,-0.00000757,-0.00000871,-0.00001676,0.00000275,0.00004134,0.
 00004909,-0.00004225,0.00002088,-0.00001111,0.00002042,-0.00001671,-0.
 00000162,-0.00000815,-0.00001707,-0.00009939,-0.00005904,0.00095869,-0
 .00094061,0.00049148,-0.00005949,0.00007477,-0.00006420,-0.00289509,0.
 00298331,-0.00063873,-0.00034980,0.00011868,0.00000075,0.00009510,-0.0
 0008233,0.00002105,0.00003736,0.00004527,0.00079815,0.00010274,0.00000
 248,-0.00001233,-0.03719370,0.02156016,0.00400635,-0.06210449,0.059795
 04,0.02163076,0.00348491,0.00233776,0.00296528,0.00582195,-0.00271556,
 -0.00100875,0.09234696,-0.00004694,0.00006768,-0.00004819,0.00000646,-
 0.00001492,0.00002985,-0.00000911,0.00003518,0.00001573,0.00003049,-0.
 00003362,-0.00001486,0.00002186,-0.00000951,-0.00001924,-0.00014050,-0
 .00004889,0.00007483,0.00000093,-0.00001981,-0.00001633,0.00000277,0.0
 0000162,0.00000620,0.00000133,0.00001102,0.00001731,-0.00000910,-0.000
 00989,-0.00002036,0.00000425,0.00000459,0.00000331,0.00000611,0.000008
 86,0.00001331,0.00000902,0.00000169,-0.00000253,0.00001156,0.00000095,
 0.00000272,-0.00002886,-0.00010915,-0.00006825,-0.00043871,-0.00003949
 ,-0.00036113,-0.00034671,0.00007047,0.00002861,0.00168208,0.00115176,0
 .00315421,0.00051164,-0.00024847,0.00003170,-0.00010941,0.00012499,-0.
 00003073,0.00005331,-0.00030156,-0.00057005,-0.00014636,-0.00000216,0.
 00001719,0.00599885,0.00060587,-0.00195839,0.06800617,-0.16689343,-0.0
 4905681,0.00252946,-0.00356205,-0.00740286,0.00542670,-0.02347675,-0.0
 0282380,-0.08305350,0.19270976,-0.00000387,0.00000476,-0.00000331,0.00
 000106,-0.00000505,0.00000722,0.00001322,0.00007398,-0.00000957,-0.000
 00749,-0.00007930,-0.00003319,0.00000362,0.00000313,-0.00000815,0.0001
 6842,0.00015437,-0.00005568,0.00000923,-0.00000275,-0.00000595,0.00000
 175,0.00000114,0.00000102,0.00000517,0.00000023,0.00000313,0.00000306,
 -0.00000436,0.00000490,0.00000223,0.00000187,-0.00000117,-0.00002211,0
 .00000003,0.00002878,-0.00000481,-0.00000237,-0.00001143,0.00000283,-0
 .00000015,0.00000082,-0.00002237,-0.00005643,-0.00004320,0.00023701,-0
 .00025534,-0.00009187,-0.00014442,0.00000030,0.00001295,-0.00226542,0.
 00140323,0.00189752,0.00009263,-0.00005763,0.00002193,-0.00001307,0.00
 002898,-0.00000957,0.00086185,-0.00018919,-0.00017011,-0.00002141,0.00
 000037,-0.00000020,-0.00283573,0.00223759,0.00216996,0.02640644,-0.050
 85299,-0.05295563,0.00827465,-0.02009952,-0.01181315,-0.00244598,0.008
 71097,0.00543569,-0.02830078,0.05898757,0.05562394,-0.00038286,0.00045
 402,-0.00012995,-0.00004679,0.00004771,0.00012017,0.00009542,0.0000765
 8,0.00003381,0.00018257,-0.00008322,0.00000981,-0.00026768,0.00011123,
 -0.00028406,0.00000744,-0.00005908,-0.00010668,0.00001459,-0.00010406,
 -0.00015558,0.00001521,0.00004721,0.00004930,0.00000302,-0.00000315,0.
 00009545,-0.00003036,-0.00008145,-0.00005121,0.00006156,0.00005102,0.0
 0001440,0.00001692,-0.00002005,0.00012038,-0.00003141,0.00003897,-0.00
 005801,0.00005823,0.00013143,0.00010427,-0.00006804,-0.00000762,0.0000
 2186,0.00113578,-0.00059005,0.00033003,0.00246421,0.00050701,-0.000260
 10,-0.00168038,-0.00006043,-0.00001121,-0.05210892,-0.03581875,0.01718
 544,-0.00265279,0.00415564,-0.00121831,0.00061326,0.00006984,-0.000307
 09,-0.17510149,0.05639681,-0.00554338,0.00052037,0.00007839,0.00011928
 ,-0.00012980,-0.00000183,0.00013326,0.00005375,-0.00000356,-0.00004035
 ,-0.00001747,-0.00003488,0.00000893,-0.00002217,0.00002782,0.00000379,
 0.36292822,-0.00016140,-0.00090217,0.00039422,0.00000638,0.00000526,-0
 .00012236,-0.00000276,-0.00008634,-0.00000550,0.00002501,0.00032992,-0
 .00014323,-0.00023389,0.00006896,0.00004024,0.00002551,-0.00001026,0.0
 0006864,0.00000323,0.00006914,0.00007377,0.00000793,-0.00001114,-0.000
 02149,0.00001067,-0.00002328,-0.00005903,-0.00002058,0.00005912,0.0000
 3686,-0.00000842,-0.00002330,-0.00000050,-0.00003183,0.00003947,-0.000
 08850,0.00002281,-0.00000461,0.00004036,-0.00005132,0.00006054,0.00005
 497,0.00003963,-0.00000030,-0.00000996,-0.00288611,0.00143541,-0.00080
 189,-0.00565562,-0.00453726,0.00349271,0.00165696,-0.00025318,0.000309
 81,-0.02552640,0.01176184,-0.00384264,-0.00282036,-0.00416074,0.001849
 43,-0.00091985,-0.00000036,0.00038694,0.06604084,-0.07015381,0.0062968
 0,-0.00062804,-0.00006801,-0.00010427,0.00015672,-0.00000427,-0.000153
 72,-0.00006059,0.00000563,0.00004474,0.00002272,0.00004313,-0.00000837
 ,0.00002040,-0.00003210,-0.00000424,0.00068754,0.41723403,-0.00008598,
 0.00050208,0.00066261,0.00001385,0.00002053,-0.00013659,-0.00000843,0.
 00002251,-0.00002002,-0.00004942,-0.00017786,0.00009017,0.00018613,-0.
 00015573,0.00007325,-0.00000977,0.00001469,-0.00000588,0.00000508,-0.0
 0003792,-0.00004687,0.00000620,0.00000214,0.00001208,0.00000683,0.0000
 1550,0.00003893,0.00002379,0.00001477,-0.00001169,-0.00000740,0.000010
 66,0.00001517,0.00002463,-0.00000225,0.00001503,-0.00000691,-0.0000026
 4,-0.00000438,0.00004680,-0.00001243,0.00002055,-0.00001260,0.00000501
 ,0.00000516,0.00085631,-0.00034756,0.00124525,0.00242869,0.00205463,-0
 .00011967,-0.00074969,0.00020132,-0.00004301,0.01311130,-0.00240151,-0
 .00603793,0.00131983,0.00099729,-0.00054272,0.00034158,0.00000410,-0.0
 0019150,-0.00885299,0.00737318,-0.03465336,0.00026595,0.00000476,0.000
 08016,-0.00006205,-0.00001197,0.00005495,0.00002301,-0.00000291,-0.000
 01487,-0.00001238,-0.00001762,0.00000365,-0.00000714,0.00001399,0.0000
 0401,0.00279472,-0.00840030,0.39589032,0.00001700,-0.00023690,-0.00000
 243,0.00001851,-0.00000248,-0.00002199,-0.00000503,-0.00001888,-0.0000
 0403,-0.00000623,0.00006313,-0.00002058,-0.00007641,0.00003842,0.00002
 943,0.00000251,-0.00000062,0.00001841,0.00000288,0.00002473,0.00002140
 ,-0.00000047,-0.00000565,-0.00000622,0.00000297,-0.00000889,-0.0000159
 4,-0.00000236,0.00001062,0.00000805,-0.00000562,-0.00000677,-0.0000013
 1,-0.00000299,0.00000915,-0.00002388,0.00000583,-0.00000313,0.00001060
 ,-0.00001956,0.00000044,-0.00000352,0.00001008,0.00000027,-0.00000227,
 -0.00074388,0.00037810,-0.00032515,-0.00115650,-0.00149293,0.00093737,
 0.00042579,-0.00009383,0.00009297,-0.00704232,0.00356596,-0.00055338,0
 .00095968,0.00007696,-0.00012147,-0.00024288,0.00000726,0.00010341,-0.
 03149472,-0.02718739,0.01313157,-0.00016702,-0.00001399,-0.00003658,0.
 00004286,0.00000360,-0.00003946,-0.00001507,0.00000047,0.00001219,0.00
 000591,0.00001038,-0.00000214,0.00000565,-0.00000945,-0.00000096,-0.05
 363486,-0.05212071,0.02091095,0.08314777,0.00006441,0.00025974,-0.0000
 3845,-0.00000137,0.00000028,0.00004531,0.00002860,0.00003718,0.0000071
 3,0.00005554,-0.00008572,0.00002031,0.00001765,-0.00001129,-0.00007812
 ,-0.00000282,-0.00001243,-0.00003804,0.00000741,-0.00003480,-0.0000508
 1,0.00000219,0.00001485,0.00001623,-0.00000059,0.00000258,0.00003308,-
 0.00000422,-0.00003035,-0.00002144,0.00000991,0.00001925,0.00000479,0.
 00000853,-0.00000859,0.00004733,-0.00001251,0.00001094,-0.00002128,-0.
 00000442,0.00002142,0.00002913,-0.00002440,-0.00000194,0.00000692,0.00
 067751,-0.00034390,0.00021672,0.00111260,0.00065590,-0.00048106,-0.000
 72962,0.00001887,-0.00003780,-0.00121149,-0.00415950,0.00168470,-0.000
 01226,0.00125769,-0.00045942,0.00030557,0.00002202,-0.00014305,-0.0094
 0091,0.00474371,0.00042611,0.00024367,0.00002617,0.00005139,-0.0000619
 0,0.00000143,0.00006001,0.00002415,-0.00000158,-0.00001797,-0.00000874
 ,-0.00001618,0.00000388,-0.00000885,0.00001299,0.00000190,-0.05959607,
 -0.17027563,0.05525639,0.07567845,0.19561532,-0.00002228,-0.00007611,0
 .00001247,-0.00000279,0.00000469,-0.00001366,-0.00001333,-0.00001016,0
 .00000485,-0.00001294,0.00002831,-0.00000158,0.00000905,0.00000227,0.0
 0001978,0.00000221,0.00000419,0.00001186,-0.00000574,0.00001200,0.0000
 1815,-0.00000287,-0.00000552,-0.00000565,-0.00000223,-0.00000043,-0.00
 001072,0.00000082,0.00001381,0.00000872,-0.00000401,-0.00000657,-0.000
 00476,-0.00000033,-0.00000183,-0.00001081,0.00000437,-0.00000262,0.000
 00633,-0.00002744,-0.00001053,-0.00001597,0.00000908,0.00000075,-0.000
 00194,-0.00017992,0.00008839,-0.00002685,-0.00026765,-0.00007482,0.000
 09488,0.00022602,0.00000381,0.00000604,0.00115469,0.00117156,-0.000309
 71,-0.00010564,-0.00044926,0.00018847,-0.00008927,-0.00000838,0.000042
 51,0.00693240,0.00215544,0.00151423,-0.00007282,-0.00000927,-0.0000194
 6,0.00001906,-0.00000164,-0.00001647,-0.00000787,0.00000088,0.00000571
 ,0.00000248,0.00000522,-0.00000083,0.00000272,-0.00000376,-0.00000033,
 0.02350532,0.05463944,-0.05525640,-0.03241524,-0.06655142,0.05905683,0
 .00004457,0.00016661,0.00006842,0.00001553,-0.00001337,-0.00001866,-0.
 00001360,0.00000880,-0.00000003,-0.00002524,-0.00007734,0.00004627,0.0
 0007508,-0.00002449,0.00000447,-0.00000310,0.00000761,-0.00000435,-0.0
 0000153,-0.00001075,0.00000093,-0.00000215,-0.00000156,-0.00000019,-0.
 00000276,0.00000934,0.00000534,0.00000604,0.00000364,0.00000855,-0.000
 00061,-0.00000183,-0.00000244,0.00001089,-0.00001093,0.00000613,-0.000
 00097,-0.00000285,-0.00000245,0.00000661,-0.00001349,-0.00001640,-0.00
 000016,0.00000255,0.00000107,0.00026208,-0.00011765,0.00025420,0.00081
 087,0.00025426,0.00006138,-0.00024154,0.00002693,-0.00003848,-0.003507
 56,0.00084544,-0.00367055,0.00052247,0.00037138,-0.00006564,0.00010652
 ,0.00000608,-0.00004295,-0.03333053,0.00955400,-0.02311664,0.00009072,
 0.00000488,0.00003001,-0.00002096,-0.00000173,0.00002470,0.00000876,-0
 .00000053,-0.00000649,-0.00000361,-0.00000553,0.00000066,-0.00000272,0
 .00000459,0.00000020,-0.04721858,0.00842085,-0.04564744,0.00546131,-0.
 00150414,0.00457193,0.07212592,0.00002736,-0.00000247,-0.00000639,0.00
 000070,0.00000868,0.00000571,-0.00000005,0.00000172,0.00000239,0.00000
 188,-0.00000975,0.00000561,-0.00000650,0.00001152,-0.00000606,-0.00000
 037,-0.00000074,-0.00000155,0.00000007,-0.00000067,-0.00000103,-0.0000
 0169,0.00000002,0.00000038,-0.00000134,-0.00000106,0.00000106,-0.00000
 189,0.00000264,-0.00000018,-0.00000079,0.00000087,-0.00000190,0.000004
 68,-0.00000149,0.00000244,-0.00000028,0.00000063,-0.00000147,-0.000026
 71,0.00000115,-0.00000787,-0.00000060,-0.00000010,0.00000047,-0.000006
 51,0.00001179,-0.00001252,0.00001008,-0.00015233,0.00007685,0.00000459
 ,0.00000079,0.00000853,-0.00145063,0.00150073,-0.00055747,0.00068278,-
 0.00021823,0.00014324,-0.00000227,0.00000038,-0.00000180,0.00754182,-0
 .00012278,0.00498446,-0.00000311,-0.00000292,-0.00000361,0.00000074,0.
 00000146,-0.00000180,-0.00000034,0.00000034,0.00000038,-0.00000012,0.0
 0000017,0.00000015,0.00000027,0.00000018,0.00000011,0.01111684,-0.0408
 8418,0.03306307,0.00255191,-0.00586641,0.02016960,-0.01703674,0.042325
 64,0.00006270,0.00014519,-0.00005072,-0.00000317,-0.00000012,0.0000296
 6,0.00002080,0.00002217,0.00001278,0.00004860,-0.00004301,0.00000287,0
 .00001511,-0.00000400,-0.00006108,-0.00000025,-0.00001159,-0.00002577,
 0.00000290,-0.00002462,-0.00003381,0.00000060,0.00001003,0.00001070,-0
 .00000376,0.00000253,0.00002129,0.00000026,-0.00002249,-0.00001272,0.0
 0001395,0.00001237,0.00000245,0.00000545,-0.00001021,0.00003603,-0.000
 00805,0.00000926,-0.00001493,0.00000332,0.00003050,0.00001168,-0.00001
 586,-0.00000234,0.00000503,0.00035668,-0.00018714,0.00007497,0.0005806
 5,0.00016972,-0.00022112,-0.00047156,-0.00001161,-0.00000703,-0.003061
 90,-0.00296109,0.00223945,-0.00003091,0.00050166,-0.00051178,0.0001829
 1,0.00001840,-0.00008462,-0.00585018,0.00414339,-0.00144395,0.00015594
 ,0.00002017,0.00002836,-0.00004013,-0.00000063,0.00004021,0.00001531,-
 0.00000105,-0.00001157,-0.00000518,-0.00000990,0.00000279,-0.00000597,
 0.00000804,0.00000151,-0.05534262,0.03418428,-0.19360868,-0.00080397,0
 .00852736,-0.01114828,0.06796258,-0.04169552,0.22471563,0.00009537,0.0
 0009273,-0.00016912,-0.00000765,-0.00000808,0.00001904,-0.00001593,0.0
 0000885,-0.00000205,-0.00003446,-0.00006002,0.00001974,0.00001848,0.00
 001543,0.00002628,-0.00000448,0.00001134,0.00000309,-0.00000787,0.0000
 0064,0.00000490,-0.00000107,-0.00000532,-0.00000351,0.00000083,0.00000
 508,-0.00000308,0.00000452,-0.00000619,0.00000234,-0.00000390,-0.00000
 531,-0.00000219,-0.00000220,-0.00000609,-0.00000166,0.00000086,-0.0000
 0678,0.00000059,0.00002388,-0.00002857,-0.00001749,0.00000352,0.000000
 76,-0.00000223,0.00023150,-0.00014159,-0.00011370,0.00048374,0.0000306
 9,-0.00034366,-0.00006755,0.00001504,-0.00000120,-0.00211772,0.0035807
 2,0.00267135,0.00046577,0.00016662,-0.00028517,0.00005811,-0.00000588,
 -0.00002638,-0.02819517,0.02315869,0.01745583,0.00003468,0.00000190,-0
 .00000743,-0.00000830,0.00000137,0.00000701,0.00000334,0.00000008,-0.0
 0000185,-0.00000079,-0.00000207,0.00000069,-0.00000100,0.00000221,0.00
 000032,-0.03477392,0.01398024,0.01314631,0.00450705,-0.00565227,-0.003
 20761,0.00482752,-0.00340404,-0.00378465,0.05448219,-0.00003332,-0.000
 11493,0.00000479,0.00000222,-0.00000175,-0.00001324,-0.00001264,-0.000
 01319,-0.00000608,-0.00002570,0.00002602,0.00000070,-0.00001311,0.0000
 0929,0.00002941,0.00000013,0.00000514,0.00001444,-0.00000101,0.0000173
 3,0.00002176,-0.00000158,-0.00000544,-0.00000622,0.00000022,-0.0000023
 6,-0.00001321,0.00000050,0.00001337,0.00000719,-0.00000777,-0.00000659
 ,-0.00000109,-0.00000080,0.00000278,-0.00001781,0.00000436,-0.00000428
 ,0.00000814,-0.00001741,-0.00000842,-0.00000987,0.00000927,0.00000146,
 -0.00000218,-0.00024206,0.00013753,-0.00007668,-0.00040963,-0.00024490
 ,0.00015505,0.00031350,0.00000420,0.00000495,0.00107644,0.00335351,-0.
 00081361,0.00050939,-0.00078294,-0.00015827,-0.00012418,-0.00001173,0.
 00006104,0.01040683,-0.00733265,-0.00468947,-0.00010169,-0.00001528,-0
 .00002143,0.00002647,0.00000437,-0.00002439,-0.00001013,0.00000067,0.0
 0000738,0.00000321,0.00000667,-0.00000171,0.00000396,-0.00000546,-0.00
 000076,0.02246770,-0.13968284,-0.08800707,-0.00121961,-0.02187181,-0.0
 1108815,-0.00086413,0.00339442,-0.00281915,-0.03173915,0.16312723,-0.0
 0007686,-0.00014982,0.00003031,-0.00000301,-0.00000156,-0.00002410,-0.
 00001738,-0.00001821,-0.00000309,-0.00002436,0.00005718,-0.00001072,-0
 .00001116,-0.00000284,0.00004259,0.00000271,0.00000679,0.00002090,-0.0
 0000498,0.00002394,0.00002963,-0.00000160,-0.00000778,-0.00000891,0.00
 000022,-0.00000247,-0.00001847,0.00000186,0.00001757,0.00001109,-0.000
 00889,-0.00000995,-0.00000216,-0.00000700,0.00000379,-0.00002311,0.000
 00658,-0.00000525,0.00001230,-0.00001204,-0.00001330,-0.00001294,0.000
 01384,0.00000164,-0.00000350,-0.00032776,0.00016669,-0.00006430,-0.000
 57736,-0.00005272,0.00013329,0.00040644,0.00000468,0.00000165,0.003857
 23,0.00098328,-0.00094500,-0.00056848,-0.00036921,0.00012753,-0.000162
 60,-0.00001490,0.00008018,0.00542879,-0.00524802,0.00046888,-0.0001319
 9,-0.00001624,-0.00002872,0.00003481,0.00000085,-0.00002949,-0.0000136
 1,0.00000087,0.00000986,0.00000438,0.00000894,-0.00000199,0.00000486,-
 0.00000732,-0.00000087,0.01886252,-0.08814751,-0.10752031,-0.00087590,
 0.00150008,0.00585287,-0.00041494,-0.01616518,-0.01999883,-0.02538381,
 0.10745610,0.12187581\\0.00000061,-0.00001622,0.00000332,0.00000948,0.
 00000140,0.00000192,-0.00000466,0.00000191,0.00000112,0.00000896,0.000
 00307,-0.00000876,0.00000455,-0.00000532,-0.00001173,-0.00000403,-0.00
 000262,-0.00000320,0.00000347,0.00002009,-0.00000245,0.00000597,0.0000
 0607,-0.00000974,0.00000071,0.00000606,-0.00000392,0.00000717,0.000000
 07,-0.00000585,0.00001079,-0.00000553,-0.00001406,-0.00000012,-0.00000
 569,-0.00001810,0.00000570,-0.00000736,-0.00000802,0.00000223,0.000000
 43,-0.00000328,0.00000381,0.00001252,-0.00000604,0.00000065,-0.0000244
 4,0.00000797,-0.00003804,0.00002526,-0.00000955,-0.00002776,0.00001679
 ,-0.00006090,0.00006545,0.00000474,0.00007869,-0.00002440,0.00000337,-
 0.00001969,-0.00000442,0.00000497,0.00002951,-0.00005299,-0.00000381,-
 0.00002625,0.00003695,0.00000666,0.00003865,-0.00003596,0.00000178,0.0
 0000451,0.00000257,0.00000201,0.00001224,-0.00000387,0.00000607,0.0000
 1124,0.00000187,0.00000654,0.00000111,0.00005131,-0.00002408,0.0000057
 8,-0.00001091,-0.00002070,0.00000748,-0.00000588,-0.00000488,0.0000037
 8,-0.00000921,-0.00000918,0.00000424\\\@


 Everywhere is walking distance if you have the time.
                                    -- Steven Wright
 Job cpu time:       0 days  0 hours  0 minutes 36.2 seconds.
 File lengths (MBytes):  RWF=    219 Int=      0 D2E=      0 Chk=     22 Scr=      1
 Normal termination of Gaussian 09 at Mon Jul 12 13:44:34 2021.
