 Entering Gaussian System, Link 0=g09
 Input=quadricyclane_cycloaddition_PM6_toluene_water.com
 Output=quadricyclane_cycloaddition_PM6_toluene_water.log
 Initial command:
 /apps/applications/gaussian/G09.D01/2/default/g09/l1.exe "/local/730373.1.40core-192G.q/Gau-78107.inp" -scrdir="/local/730373.1.40core-192G.q/"
 Entering Link 1 = /apps/applications/gaussian/G09.D01/2/default/g09/l1.exe PID=     78108.
  
 Copyright (c) 1988,1990,1992,1993,1995,1998,2003,2009,2013,
            Gaussian, Inc.  All Rights Reserved.
  
 This is part of the Gaussian(R) 09 program.  It is based on
 the Gaussian(R) 03 system (copyright 2003, Gaussian, Inc.),
 the Gaussian(R) 98 system (copyright 1998, Gaussian, Inc.),
 the Gaussian(R) 94 system (copyright 1995, Gaussian, Inc.),
 the Gaussian 92(TM) system (copyright 1992, Gaussian, Inc.),
 the Gaussian 90(TM) system (copyright 1990, Gaussian, Inc.),
 the Gaussian 88(TM) system (copyright 1988, Gaussian, Inc.),
 the Gaussian 86(TM) system (copyright 1986, Carnegie Mellon
 University), and the Gaussian 82(TM) system (copyright 1983,
 Carnegie Mellon University). Gaussian is a federally registered
 trademark of Gaussian, Inc.
  
 This software contains proprietary and confidential information,
 including trade secrets, belonging to Gaussian, Inc.
  
 This software is provided under written license and may be
 used, copied, transmitted, or stored only in accord with that
 written license.
  
 The following legend is applicable only to US Government
 contracts under FAR:
  
                    RESTRICTED RIGHTS LEGEND
  
 Use, reproduction and disclosure by the US Government is
 subject to restrictions as set forth in subparagraphs (a)
 and (c) of the Commercial Computer Software - Restricted
 Rights clause in FAR 52.227-19.
  
 Gaussian, Inc.
 340 Quinnipiac St., Bldg. 40, Wallingford CT 06492
  
  
 ---------------------------------------------------------------
 Warning -- This program may not be used in any manner that
 competes with the business of Gaussian, Inc. or will provide
 assistance to any competitor of Gaussian, Inc.  The licensee
 of this program is prohibited from giving any competitor of
 Gaussian, Inc. access to this program.  By using this program,
 the user acknowledges that Gaussian, Inc. is engaged in the
 business of creating and licensing software in the field of
 computational chemistry and represents and warrants to the
 licensee that it is not a competitor of Gaussian, Inc. and that
 it will not use this program in any manner prohibited above.
 ---------------------------------------------------------------
  

 Cite this work as:
 Gaussian 09, Revision D.01,
 M. J. Frisch, G. W. Trucks, H. B. Schlegel, G. E. Scuseria, 
 M. A. Robb, J. R. Cheeseman, G. Scalmani, V. Barone, B. Mennucci, 
 G. A. Petersson, H. Nakatsuji, M. Caricato, X. Li, H. P. Hratchian, 
 A. F. Izmaylov, J. Bloino, G. Zheng, J. L. Sonnenberg, M. Hada, 
 M. Ehara, K. Toyota, R. Fukuda, J. Hasegawa, M. Ishida, T. Nakajima, 
 Y. Honda, O. Kitao, H. Nakai, T. Vreven, J. A. Montgomery, Jr., 
 J. E. Peralta, F. Ogliaro, M. Bearpark, J. J. Heyd, E. Brothers, 
 K. N. Kudin, V. N. Staroverov, T. Keith, R. Kobayashi, J. Normand, 
 K. Raghavachari, A. Rendell, J. C. Burant, S. S. Iyengar, J. Tomasi, 
 M. Cossi, N. Rega, J. M. Millam, M. Klene, J. E. Knox, J. B. Cross, 
 V. Bakken, C. Adamo, J. Jaramillo, R. Gomperts, R. E. Stratmann, 
 O. Yazyev, A. J. Austin, R. Cammi, C. Pomelli, J. W. Ochterski, 
 R. L. Martin, K. Morokuma, V. G. Zakrzewski, G. A. Voth, 
 P. Salvador, J. J. Dannenberg, S. Dapprich, A. D. Daniels, 
 O. Farkas, J. B. Foresman, J. V. Ortiz, J. Cioslowski, 
 and D. J. Fox, Gaussian, Inc., Wallingford CT, 2013.
 
 ******************************************
 Gaussian 09:  ES64L-G09RevD.01 24-Apr-2013
                 8-Sep-2020 
 ******************************************
 %nprocshared=4
 Will use up to    4 processors via shared memory.
 %chk=quadricyclane_cycloaddition_PM6_toluene_water.chk
 ----------------------------------------------------------------------
 # opt freq pm6 scrf=(cpcm,solvent=water) geom=connectivity empiricaldi
 spersion=gd3
 ----------------------------------------------------------------------
 1/14=-1,18=20,19=15,26=1,38=1,57=2/1,3;
 2/9=110,12=2,17=6,18=5,40=1/2;
 3/5=2,16=1,25=1,41=3900000,70=2101,71=1,72=1,124=31/1,2,3;
 4/35=1/1;
 5/5=2,35=1,38=5,53=1/2;
 6/7=2,8=2,9=2,10=2,28=1/1;
 7//1,2,3,16;
 1/14=-1,18=20,19=15,26=1/3(2);
 2/9=110/2;
 99//99;
 2/9=110/2;
 3/5=2,16=1,25=1,41=3900000,70=2105,71=1,72=1,124=31,135=20/1,2,3;
 4/5=5,16=3,35=1/1;
 5/5=2,35=1,38=5,53=1/2;
 7//1,2,3,16;
 1/14=-1,18=20,19=15,26=1/3(-5);
 2/9=110/2;
 6/7=2,8=2,9=2,10=2,19=2,28=1/1;
 99/9=1/99;
 -------------------
 Title Card Required
 -------------------
 Symbolic Z-matrix:
 Charge =  0 Multiplicity = 1
 C                     0.       -1.09357  -0.71623 
 C                     0.82795  -0.83003   0.55627 
 C                    -0.82795   0.83003   0.55627 
 C                    -1.09343   0.00311  -0.71625 
 H                    -0.0775   -2.01562  -1.24805 
 H                    -2.01559  -0.07146  -1.24864 
 C                     0.        0.        1.54123 
 H                     0.62954   0.62784   2.19083 
 H                    -0.62954  -0.62784   2.19083 
 C                     1.09343  -0.00311  -0.71625 
 H                     2.01559   0.07146  -1.24864 
 C                     0.        1.09357  -0.71623 
 H                     0.0775    2.01562  -1.24805 
 H                     1.54127  -1.54566   0.93944 
 H                    -1.54127   1.54566   0.93944 
 

 GradGradGradGradGradGradGradGradGradGradGradGradGradGradGradGradGradGrad
 Berny optimization.
 Initialization pass.
                           ----------------------------
                           !    Initial Parameters    !
                           ! (Angstroms and Degrees)  !
 --------------------------                            --------------------------
 ! Name  Definition              Value          Derivative Info.                !
 --------------------------------------------------------------------------------
 ! R1    R(1,2)                  1.5408         estimate D2E/DX2                !
 ! R2    R(1,4)                  1.5486         estimate D2E/DX2                !
 ! R3    R(1,5)                  1.0673         estimate D2E/DX2                !
 ! R4    R(1,10)                 1.5442         estimate D2E/DX2                !
 ! R5    R(2,7)                  1.5312         estimate D2E/DX2                !
 ! R6    R(2,10)                 1.5406         estimate D2E/DX2                !
 ! R7    R(2,14)                 1.0806         estimate D2E/DX2                !
 ! R8    R(3,4)                  1.5406         estimate D2E/DX2                !
 ! R9    R(3,7)                  1.5312         estimate D2E/DX2                !
 ! R10   R(3,12)                 1.5408         estimate D2E/DX2                !
 ! R11   R(3,15)                 1.0806         estimate D2E/DX2                !
 ! R12   R(4,6)                  1.0674         estimate D2E/DX2                !
 ! R13   R(4,12)                 1.5442         estimate D2E/DX2                !
 ! R14   R(7,8)                  1.1011         estimate D2E/DX2                !
 ! R15   R(7,9)                  1.1011         estimate D2E/DX2                !
 ! R16   R(10,11)                1.0674         estimate D2E/DX2                !
 ! R17   R(10,12)                1.5486         estimate D2E/DX2                !
 ! R18   R(12,13)                1.0673         estimate D2E/DX2                !
 ! A1    A(2,1,4)              104.9682         estimate D2E/DX2                !
 ! A2    A(2,1,5)              126.7495         estimate D2E/DX2                !
 ! A3    A(4,1,5)              124.0924         estimate D2E/DX2                !
 ! A4    A(4,1,10)              89.9929         estimate D2E/DX2                !
 ! A5    A(5,1,10)             131.4132         estimate D2E/DX2                !
 ! A6    A(1,2,7)              109.4751         estimate D2E/DX2                !
 ! A7    A(1,2,14)             122.2931         estimate D2E/DX2                !
 ! A8    A(7,2,10)             109.4834         estimate D2E/DX2                !
 ! A9    A(7,2,14)             119.1972         estimate D2E/DX2                !
 ! A10   A(10,2,14)            122.3147         estimate D2E/DX2                !
 ! A11   A(4,3,7)              109.4834         estimate D2E/DX2                !
 ! A12   A(4,3,15)             122.3147         estimate D2E/DX2                !
 ! A13   A(7,3,12)             109.4751         estimate D2E/DX2                !
 ! A14   A(7,3,15)             119.1972         estimate D2E/DX2                !
 ! A15   A(12,3,15)            122.2931         estimate D2E/DX2                !
 ! A16   A(1,4,3)              104.9758         estimate D2E/DX2                !
 ! A17   A(1,4,6)              124.0916         estimate D2E/DX2                !
 ! A18   A(1,4,12)              90.0071         estimate D2E/DX2                !
 ! A19   A(3,4,6)              126.75           estimate D2E/DX2                !
 ! A20   A(6,4,12)             131.3797         estimate D2E/DX2                !
 ! A21   A(2,7,3)               99.9297         estimate D2E/DX2                !
 ! A22   A(2,7,8)              112.2978         estimate D2E/DX2                !
 ! A23   A(2,7,9)              112.3056         estimate D2E/DX2                !
 ! A24   A(3,7,8)              112.3056         estimate D2E/DX2                !
 ! A25   A(3,7,9)              112.2978         estimate D2E/DX2                !
 ! A26   A(8,7,9)              107.6944         estimate D2E/DX2                !
 ! A27   A(1,10,11)            131.3797         estimate D2E/DX2                !
 ! A28   A(1,10,12)             90.0071         estimate D2E/DX2                !
 ! A29   A(2,10,11)            126.75           estimate D2E/DX2                !
 ! A30   A(2,10,12)            104.9758         estimate D2E/DX2                !
 ! A31   A(11,10,12)           124.0916         estimate D2E/DX2                !
 ! A32   A(3,12,10)            104.9682         estimate D2E/DX2                !
 ! A33   A(3,12,13)            126.7495         estimate D2E/DX2                !
 ! A34   A(4,12,10)             89.9929         estimate D2E/DX2                !
 ! A35   A(4,12,13)            131.4132         estimate D2E/DX2                !
 ! A36   A(10,12,13)           124.0924         estimate D2E/DX2                !
 ! D1    D(4,1,2,7)             20.7444         estimate D2E/DX2                !
 ! D2    D(4,1,2,14)           167.4219         estimate D2E/DX2                !
 ! D3    D(5,1,2,7)           -136.7392         estimate D2E/DX2                !
 ! D4    D(5,1,2,14)             9.9383         estimate D2E/DX2                !
 ! D5    D(2,1,4,3)             -0.0185         estimate D2E/DX2                !
 ! D6    D(2,1,4,6)           -158.2894         estimate D2E/DX2                !
 ! D7    D(2,1,4,12)            58.7415         estimate D2E/DX2                !
 ! D8    D(5,1,4,3)            158.2338         estimate D2E/DX2                !
 ! D9    D(5,1,4,6)             -0.0371         estimate D2E/DX2                !
 ! D10   D(5,1,4,12)          -143.0062         estimate D2E/DX2                !
 ! D11   D(10,1,4,3)           -58.7619         estimate D2E/DX2                !
 ! D12   D(10,1,4,6)           142.9672         estimate D2E/DX2                !
 ! D13   D(10,1,4,12)           -0.0019         estimate D2E/DX2                !
 ! D14   D(4,1,10,11)         -138.3397         estimate D2E/DX2                !
 ! D15   D(4,1,10,12)            0.0019         estimate D2E/DX2                !
 ! D16   D(5,1,10,11)            0.0177         estimate D2E/DX2                !
 ! D17   D(5,1,10,12)          138.3593         estimate D2E/DX2                !
 ! D18   D(1,2,7,3)            -32.1162         estimate D2E/DX2                !
 ! D19   D(1,2,7,8)           -151.3418         estimate D2E/DX2                !
 ! D20   D(1,2,7,9)             87.1037         estimate D2E/DX2                !
 ! D21   D(10,2,7,3)            32.1061         estimate D2E/DX2                !
 ! D22   D(10,2,7,8)           -87.1196         estimate D2E/DX2                !
 ! D23   D(10,2,7,9)           151.326          estimate D2E/DX2                !
 ! D24   D(14,2,7,3)          -179.9775         estimate D2E/DX2                !
 ! D25   D(14,2,7,8)            60.7969         estimate D2E/DX2                !
 ! D26   D(14,2,7,9)           -60.7576         estimate D2E/DX2                !
 ! D27   D(7,2,10,11)          136.789          estimate D2E/DX2                !
 ! D28   D(7,2,10,12)          -20.7135         estimate D2E/DX2                !
 ! D29   D(14,2,10,11)          -9.9372         estimate D2E/DX2                !
 ! D30   D(14,2,10,12)        -167.4397         estimate D2E/DX2                !
 ! D31   D(7,3,4,1)            -20.7135         estimate D2E/DX2                !
 ! D32   D(7,3,4,6)            136.789          estimate D2E/DX2                !
 ! D33   D(15,3,4,1)          -167.4397         estimate D2E/DX2                !
 ! D34   D(15,3,4,6)            -9.9372         estimate D2E/DX2                !
 ! D35   D(4,3,7,2)             32.1061         estimate D2E/DX2                !
 ! D36   D(4,3,7,8)            151.326          estimate D2E/DX2                !
 ! D37   D(4,3,7,9)            -87.1196         estimate D2E/DX2                !
 ! D38   D(12,3,7,2)           -32.1162         estimate D2E/DX2                !
 ! D39   D(12,3,7,8)            87.1037         estimate D2E/DX2                !
 ! D40   D(12,3,7,9)          -151.3418         estimate D2E/DX2                !
 ! D41   D(15,3,7,2)          -179.9775         estimate D2E/DX2                !
 ! D42   D(15,3,7,8)           -60.7576         estimate D2E/DX2                !
 ! D43   D(15,3,7,9)            60.7969         estimate D2E/DX2                !
 ! D44   D(7,3,12,10)           20.7444         estimate D2E/DX2                !
 ! D45   D(7,3,12,13)         -136.7392         estimate D2E/DX2                !
 ! D46   D(15,3,12,10)         167.4219         estimate D2E/DX2                !
 ! D47   D(15,3,12,13)           9.9383         estimate D2E/DX2                !
 ! D48   D(1,4,12,10)            0.0019         estimate D2E/DX2                !
 ! D49   D(1,4,12,13)          138.3593         estimate D2E/DX2                !
 ! D50   D(6,4,12,10)         -138.3397         estimate D2E/DX2                !
 ! D51   D(6,4,12,13)            0.0177         estimate D2E/DX2                !
 ! D52   D(1,10,12,3)           58.7415         estimate D2E/DX2                !
 ! D53   D(1,10,12,4)           -0.0019         estimate D2E/DX2                !
 ! D54   D(1,10,12,13)        -143.0062         estimate D2E/DX2                !
 ! D55   D(2,10,12,3)           -0.0185         estimate D2E/DX2                !
 ! D56   D(2,10,12,4)          -58.7619         estimate D2E/DX2                !
 ! D57   D(2,10,12,13)         158.2338         estimate D2E/DX2                !
 ! D58   D(11,10,12,3)        -158.2894         estimate D2E/DX2                !
 ! D59   D(11,10,12,4)         142.9672         estimate D2E/DX2                !
 ! D60   D(11,10,12,13)         -0.0371         estimate D2E/DX2                !
 --------------------------------------------------------------------------------
 Trust Radius=3.00D-01 FncErr=1.00D-07 GrdErr=1.00D-07
 Number of steps in this run=    100 maximum allowed number of steps=    100.
 GradGradGradGradGradGradGradGradGradGradGradGradGradGradGradGradGradGrad

                          Input orientation:                          
 ---------------------------------------------------------------------
 Center     Atomic      Atomic             Coordinates (Angstroms)
 Number     Number       Type             X           Y           Z
 ---------------------------------------------------------------------
      1          6           0        0.000000   -1.093569   -0.716225
      2          6           0        0.827950   -0.830025    0.556267
      3          6           0       -0.827950    0.830025    0.556267
      4          6           0       -1.093430    0.003106   -0.716251
      5          1           0       -0.077501   -2.015623   -1.248052
      6          1           0       -2.015592   -0.071457   -1.248643
      7          6           0        0.000000    0.000000    1.541226
      8          1           0        0.629543    0.627841    2.190829
      9          1           0       -0.629543   -0.627841    2.190829
     10          6           0        1.093430   -0.003106   -0.716251
     11          1           0        2.015592    0.071457   -1.248643
     12          6           0        0.000000    1.093569   -0.716225
     13          1           0        0.077501    2.015623   -1.248052
     14          1           0        1.541270   -1.545658    0.939438
     15          1           0       -1.541270    1.545658    0.939438
 ---------------------------------------------------------------------
                    Distance matrix (angstroms):
                    1          2          3          4          5
     1  C    0.000000
     2  C    1.540842   0.000000
     3  C    2.450500   2.344733   0.000000
     4  C    1.548640   2.450533   1.540642   0.000000
     5  H    1.067253   2.341164   3.452022   2.321678   0.000000
     6  H    2.321808   3.452370   2.341124   1.067419   2.745174
     7  C    2.508382   1.531204   1.531204   2.508346   3.442211
     8  H    3.436647   2.199212   2.199308   3.436574   4.394737
     9  H    3.010679   2.199308   2.199212   3.010714   3.749212
    10  C    1.544247   1.540642   2.450533   2.186869   2.388329
    11  H    2.388172   2.341124   3.452370   3.155017   2.955832
    12  C    2.187138   2.450500   1.540842   1.544247   3.155301
    13  H    3.155301   3.452022   2.341164   2.388329   4.034225
    14  H    2.306755   1.080637   3.376965   3.475862   2.761594
    15  H    3.475953   3.376965   1.080637   2.306802   4.428369
                    6          7          8          9         10
     6  H    0.000000
     7  C    3.442541   0.000000
     8  H    4.394966   1.101132   0.000000
     9  H    3.749755   1.101132   1.778211   0.000000
    10  C    3.155017   2.508346   3.010714   3.436574   0.000000
    11  H    4.033717   3.442541   3.749755   4.394966   1.067419
    12  C    2.388172   2.508382   3.010679   3.436647   1.548640
    13  H    2.955832   3.442211   3.749212   4.394737   2.321678
    14  H    4.428570   2.264226   2.668581   2.668482   2.306802
    15  H    2.761836   2.264226   2.668482   2.668581   3.475862
                   11         12         13         14         15
    11  H    0.000000
    12  C    2.321808   0.000000
    13  H    2.745174   1.067253   0.000000
    14  H    2.761836   3.475953   4.428369   0.000000
    15  H    4.428570   2.306755   2.761594   4.365580   0.000000
 Stoichiometry    C7H8
 Framework group  C2[C2(C),X(C6H8)]
 Deg. of freedom    20
 Full point group                 C2      NOp   2
 Largest Abelian subgroup         C2      NOp   2
 Largest concise Abelian subgroup C2      NOp   2
                         Standard orientation:                         
 ---------------------------------------------------------------------
 Center     Atomic      Atomic             Coordinates (Angstroms)
 Number     Number       Type             X           Y           Z
 ---------------------------------------------------------------------
      1          6           0        0.000000    1.093569   -0.716225
      2          6           0       -0.827950    0.830025    0.556267
      3          6           0        0.827950   -0.830025    0.556267
      4          6           0        1.093430   -0.003106   -0.716251
      5          1           0        0.077501    2.015623   -1.248052
      6          1           0        2.015592    0.071457   -1.248643
      7          6           0        0.000000    0.000000    1.541226
      8          1           0       -0.629543   -0.627841    2.190829
      9          1           0        0.629543    0.627841    2.190829
     10          6           0       -1.093430    0.003106   -0.716251
     11          1           0       -2.015592   -0.071457   -1.248643
     12          6           0        0.000000   -1.093569   -0.716225
     13          1           0       -0.077501   -2.015623   -1.248052
     14          1           0       -1.541270    1.545658    0.939438
     15          1           0        1.541270   -1.545658    0.939438
 ---------------------------------------------------------------------
 Rotational constants (GHZ):      4.3088565      4.2836067      3.2141012
 Standard basis: VSTO-6G (5D, 7F)
 There are    18 symmetry adapted cartesian basis functions of A   symmetry.
 There are    18 symmetry adapted cartesian basis functions of B   symmetry.
 There are    18 symmetry adapted basis functions of A   symmetry.
 There are    18 symmetry adapted basis functions of B   symmetry.
    36 basis functions,   216 primitive gaussians,    36 cartesian basis functions
    18 alpha electrons       18 beta electrons
       nuclear repulsion energy       168.9530591379 Hartrees.
 Integral buffers will be    131072 words long.
 Regular integral format.
 Two-electron integral symmetry is turned off.
 Nuclear repulsion after empirical dispersion term =      168.9502668130 Hartrees.
 ------------------------------------------------------------------------------
 Polarizable Continuum Model (PCM)
 =================================
 Model                : C-PCM.
 Atomic radii         : UFF (Universal Force Field).
 Polarization charges : Total charges.
 Charge compensation  : None.
 Solution method      : On-the-fly selection.
 Cavity type          : Scaled VdW (van der Waals Surface) (Alpha=1.100).
 Cavity algorithm     : GePol (No added spheres)
                        Default sphere list used, NSphG=   15.
                        Lebedev-Laikov grids with approx.  5.0 points / Ang**2.
                        Smoothing algorithm: Karplus/York (Gamma=1.0000).
                        Polarization charges: spherical gaussians, with
                                              point-specific exponents (IZeta= 3).
                        Self-potential: point-specific (ISelfS= 7).
                        Self-field    : sphere-specific E.n sum rule (ISelfD= 2).
 1st derivatives      : Analytical E(r).r(x)/FMM algorithm (CHGder, D1EAlg=3).
                        Cavity 1st derivative terms included.
 Solvent              : Water, Eps=  78.355300 Eps(inf)=   1.777849
 ------------------------------------------------------------------------------
 Spheres list:
 ISph  on   Nord     Re0    Alpha      Xe            Ye            Ze
    1   C      1    1.9255  1.100      0.000000      1.093569     -0.716225
    2   C      2    1.9255  1.100     -0.827950      0.830025      0.556267
    3   C      3    1.9255  1.100      0.827950     -0.830025      0.556267
    4   C      4    1.9255  1.100      1.093430     -0.003106     -0.716251
    5   H      5    1.4430  1.100      0.077501      2.015623     -1.248052
    6   H      6    1.4430  1.100      2.015592      0.071457     -1.248643
    7   C      7    1.9255  1.100      0.000000      0.000000      1.541226
    8   H      8    1.4430  1.100     -0.629543     -0.627841      2.190829
    9   H      9    1.4430  1.100      0.629543      0.627841      2.190829
   10   C     10    1.9255  1.100     -1.093430      0.003106     -0.716251
   11   H     11    1.4430  1.100     -2.015592     -0.071457     -1.248643
   12   C     12    1.9255  1.100      0.000000     -1.093569     -0.716225
   13   H     13    1.4430  1.100     -0.077501     -2.015623     -1.248052
   14   H     14    1.4430  1.100     -1.541270      1.545658      0.939438
   15   H     15    1.4430  1.100      1.541270     -1.545658      0.939438
 ------------------------------------------------------------------------------
 Do NDO integrals.
 One-electron integrals computed using PRISM.
 NBasis=    36 RedAO= T EigKep=  7.07D-01  NBF=    18    18
 NBsUse=    36 1.00D-06 EigRej= -1.00D+00 NBFU=    18    18
 Simple Huckel Guess.
 Initial guess orbital symmetries:
       Occupied  (A) (B) (A) (B) (A) (B) (A) (A) (B) (A) (B) (A)
                 (B) (B) (A) (B) (A) (B)
       Virtual   (B) (A) (B) (A) (A) (B) (B) (B) (A) (B) (A) (A)
                 (B) (B) (A) (B) (A) (A)
 The electronic state of the initial guess is 1-A.
 Overlap will be assumed to be unity.
 Keep J ints in memory in canonical form, NReq=4579149.
 Requested convergence on RMS density matrix=1.00D-08 within 128 cycles.
 Requested convergence on MAX density matrix=1.00D-06.
 Requested convergence on             energy=1.00D-06.
 No special actions if energy rises.
 Inv3:  Mode=1 IEnd=     4099683.
 Iteration    1 A*A^-1 deviation from unit magnitude is 6.66D-15 for   1152.
 Iteration    1 A*A^-1 deviation from orthogonality  is 1.91D-15 for    926    769.
 Iteration    1 A^-1*A deviation from unit magnitude is 6.66D-15 for   1152.
 Iteration    1 A^-1*A deviation from orthogonality  is 1.76D-15 for   1147    131.
 Fock symm off for IB=2 I1=    1 I=   19 J=   14 Cut=1.00D-04 Err=2.49D-03
 Fock matrix is not symmetric: symmetry in diagonalization turned off.
 Error on total polarization charges =  0.00031
 SCF Done:  E(RPM6D3) =  0.117106267893     A.U. after   13 cycles
            NFock= 12  Conv=0.28D-08     -V/T= 1.0052

 **********************************************************************

            Population analysis using the SCF density.

 **********************************************************************

 Orbital symmetries:
       Occupied  (A) (B) (A) (B) (A) (B) (A) (A) (B) (B) (A) (A)
                 (B) (B) (A) (B) (A) (B)
       Virtual   (B) (A) (B) (A) (A) (B) (B) (B) (A) (A) (B) (A)
                 (B) (B) (A) (A) (B) (A)
 The electronic state is 1-A.
 Alpha  occ. eigenvalues --   -1.22046  -0.97265  -0.93914  -0.81948  -0.72538
 Alpha  occ. eigenvalues --   -0.71417  -0.67255  -0.65701  -0.55048  -0.53631
 Alpha  occ. eigenvalues --   -0.53517  -0.50024  -0.45869  -0.45126  -0.43343
 Alpha  occ. eigenvalues --   -0.40613  -0.39750  -0.36549
 Alpha virt. eigenvalues --    0.06477   0.10098   0.11516   0.12382   0.12872
 Alpha virt. eigenvalues --    0.13589   0.14286   0.16222   0.17376   0.18270
 Alpha virt. eigenvalues --    0.21006   0.21686   0.22302   0.22353   0.22427
 Alpha virt. eigenvalues --    0.22566   0.22666   0.23141
          Condensed to atoms (all electrons):
               1          2          3          4          5          6
     1  C    4.176857   0.000000   0.000000   0.000000   0.000000   0.000000
     2  C    0.000000   4.136924   0.000000   0.000000   0.000000   0.000000
     3  C    0.000000   0.000000   4.136924   0.000000   0.000000   0.000000
     4  C    0.000000   0.000000   0.000000   4.176573   0.000000   0.000000
     5  H    0.000000   0.000000   0.000000   0.000000   0.840849   0.000000
     6  H    0.000000   0.000000   0.000000   0.000000   0.000000   0.840853
     7  C    0.000000   0.000000   0.000000   0.000000   0.000000   0.000000
     8  H    0.000000   0.000000   0.000000   0.000000   0.000000   0.000000
     9  H    0.000000   0.000000   0.000000   0.000000   0.000000   0.000000
    10  C    0.000000   0.000000   0.000000   0.000000   0.000000   0.000000
    11  H    0.000000   0.000000   0.000000   0.000000   0.000000   0.000000
    12  C    0.000000   0.000000   0.000000   0.000000   0.000000   0.000000
    13  H    0.000000   0.000000   0.000000   0.000000   0.000000   0.000000
    14  H    0.000000   0.000000   0.000000   0.000000   0.000000   0.000000
    15  H    0.000000   0.000000   0.000000   0.000000   0.000000   0.000000
               7          8          9         10         11         12
     1  C    0.000000   0.000000   0.000000   0.000000   0.000000   0.000000
     2  C    0.000000   0.000000   0.000000   0.000000   0.000000   0.000000
     3  C    0.000000   0.000000   0.000000   0.000000   0.000000   0.000000
     4  C    0.000000   0.000000   0.000000   0.000000   0.000000   0.000000
     5  H    0.000000   0.000000   0.000000   0.000000   0.000000   0.000000
     6  H    0.000000   0.000000   0.000000   0.000000   0.000000   0.000000
     7  C    4.261361   0.000000   0.000000   0.000000   0.000000   0.000000
     8  H    0.000000   0.850693   0.000000   0.000000   0.000000   0.000000
     9  H    0.000000   0.000000   0.850693   0.000000   0.000000   0.000000
    10  C    0.000000   0.000000   0.000000   4.176573   0.000000   0.000000
    11  H    0.000000   0.000000   0.000000   0.000000   0.840853   0.000000
    12  C    0.000000   0.000000   0.000000   0.000000   0.000000   4.176857
    13  H    0.000000   0.000000   0.000000   0.000000   0.000000   0.000000
    14  H    0.000000   0.000000   0.000000   0.000000   0.000000   0.000000
    15  H    0.000000   0.000000   0.000000   0.000000   0.000000   0.000000
              13         14         15
     1  C    0.000000   0.000000   0.000000
     2  C    0.000000   0.000000   0.000000
     3  C    0.000000   0.000000   0.000000
     4  C    0.000000   0.000000   0.000000
     5  H    0.000000   0.000000   0.000000
     6  H    0.000000   0.000000   0.000000
     7  C    0.000000   0.000000   0.000000
     8  H    0.000000   0.000000   0.000000
     9  H    0.000000   0.000000   0.000000
    10  C    0.000000   0.000000   0.000000
    11  H    0.000000   0.000000   0.000000
    12  C    0.000000   0.000000   0.000000
    13  H    0.840849   0.000000   0.000000
    14  H    0.000000   0.846570   0.000000
    15  H    0.000000   0.000000   0.846570
 Mulliken charges:
               1
     1  C   -0.176857
     2  C   -0.136924
     3  C   -0.136924
     4  C   -0.176573
     5  H    0.159151
     6  H    0.159147
     7  C   -0.261361
     8  H    0.149307
     9  H    0.149307
    10  C   -0.176573
    11  H    0.159147
    12  C   -0.176857
    13  H    0.159151
    14  H    0.153430
    15  H    0.153430
 Sum of Mulliken charges =   0.00000
 Mulliken charges with hydrogens summed into heavy atoms:
               1
     1  C   -0.017706
     2  C    0.016505
     3  C    0.016505
     4  C   -0.017426
     7  C    0.037254
    10  C   -0.017426
    12  C   -0.017706
 Charge=              0.0000 electrons
 Dipole moment (field-independent basis, Debye):
    X=              0.0000    Y=              0.0000    Z=              0.3465  Tot=              0.3465
 N-N= 1.689502668130D+02 E-N=-2.927575532109D+02  KE=-2.242887866123D+01
 Symmetry A    KE=-1.202391474152D+01
 Symmetry B    KE=-1.040496391971D+01
 D1PCM: C-PCM CHGder 1st derivatives, ID1Alg=3 FixD1E=F DoIter=F DoCFld=F I1PDM=0.
 Calling FoFJK, ICntrl=      2127 FMM=F ISym2X=1 I1Cent= 0 IOpClX= 0 NMat=1 NMatS=1 NMatT=0.
 ***** Axes restored to original set *****
 -------------------------------------------------------------------
 Center     Atomic                   Forces (Hartrees/Bohr)
 Number     Number              X              Y              Z
 -------------------------------------------------------------------
      1        6           0.000010575    0.000165224    0.000121617
      2        6          -0.000043841   -0.000050984    0.000028186
      3        6           0.000043841    0.000050984    0.000028186
      4        6           0.000033709    0.000015530    0.000020475
      5        1           0.000139466   -0.000231983   -0.000157779
      6        1          -0.000179310    0.000122672   -0.000107821
      7        6           0.000000000    0.000000000   -0.000686628
      8        1          -0.000064473   -0.000053668    0.000397090
      9        1           0.000064473    0.000053668    0.000397090
     10        6          -0.000033709   -0.000015530    0.000020475
     11        1           0.000179310   -0.000122672   -0.000107821
     12        6          -0.000010575   -0.000165224    0.000121617
     13        1          -0.000139466    0.000231983   -0.000157779
     14        1           0.000182477   -0.000160482    0.000041546
     15        1          -0.000182477    0.000160482    0.000041546
 -------------------------------------------------------------------
 Cartesian Forces:  Max     0.000686628 RMS     0.000172243

 GradGradGradGradGradGradGradGradGradGradGradGradGradGradGradGradGradGrad
 Berny optimization.
 FormGI is forming the generalized inverse of G from B-inverse, IUseBI=4.
 Internal  Forces:  Max     0.000268901 RMS     0.000085535
 Search for a local minimum.
 Step number   1 out of a maximum of  100
 All quantities printed in internal units (Hartrees-Bohrs-Radians)
 Mixed Optimization -- En-DIIS/RFO-DIIS
 Second derivative matrix not updated -- first step.
 ITU=  0
     Eigenvalues ---    0.00905   0.00996   0.01478   0.01523   0.01599
     Eigenvalues ---    0.01837   0.01933   0.02058   0.04285   0.05617
     Eigenvalues ---    0.05988   0.06188   0.06342   0.07083   0.07263
     Eigenvalues ---    0.07792   0.09495   0.10244   0.10277   0.14713
     Eigenvalues ---    0.15359   0.17759   0.19582   0.21159   0.22279
     Eigenvalues ---    0.25871   0.26447   0.26625   0.27716   0.28266
     Eigenvalues ---    0.28539   0.33557   0.33557   0.35917   0.35917
     Eigenvalues ---    0.37558   0.37558   0.37579   0.37579
 RFO step:  Lambda=-6.00325937D-06 EMin= 9.04852378D-03
 Linear search not attempted -- first point.
 Iteration  1 RMS(Cart)=  0.00079427 RMS(Int)=  0.00000064
 Iteration  2 RMS(Cart)=  0.00000055 RMS(Int)=  0.00000030
 ClnCor:  largest displacement from symmetrization is 1.30D-12 for atom    15.
 Variable       Old X    -DE/DX   Delta X   Delta X   Delta X     New X
                                 (Linear)    (Quad)   (Total)
    R1        2.91177   0.00006   0.00000   0.00021   0.00021   2.91198
    R2        2.92651   0.00021   0.00000   0.00083   0.00083   2.92734
    R3        2.01682   0.00027   0.00000   0.00072   0.00072   2.01753
    R4        2.91820  -0.00004   0.00000  -0.00025  -0.00025   2.91796
    R5        2.89356   0.00017   0.00000   0.00048   0.00048   2.89404
    R6        2.91139   0.00008   0.00000   0.00039   0.00039   2.91178
    R7        2.04211   0.00024   0.00000   0.00067   0.00067   2.04278
    R8        2.91139   0.00008   0.00000   0.00039   0.00039   2.91178
    R9        2.89356   0.00017   0.00000   0.00048   0.00048   2.89404
   R10        2.91177   0.00006   0.00000   0.00021   0.00021   2.91198
   R11        2.04211   0.00024   0.00000   0.00067   0.00067   2.04278
   R12        2.01713   0.00020   0.00000   0.00053   0.00053   2.01766
   R13        2.91820  -0.00004   0.00000  -0.00025  -0.00025   2.91796
   R14        2.08084   0.00017   0.00000   0.00050   0.00050   2.08134
   R15        2.08084   0.00017   0.00000   0.00050   0.00050   2.08134
   R16        2.01713   0.00020   0.00000   0.00053   0.00053   2.01766
   R17        2.92651   0.00021   0.00000   0.00083   0.00083   2.92734
   R18        2.01682   0.00027   0.00000   0.00072   0.00072   2.01753
    A1        1.83204   0.00001   0.00000   0.00007   0.00007   1.83211
    A2        2.21220  -0.00006   0.00000  -0.00024  -0.00024   2.21196
    A3        2.16582   0.00007   0.00000   0.00067   0.00067   2.16649
    A4        1.57067   0.00001   0.00000   0.00010   0.00010   1.57078
    A5        2.29359  -0.00008   0.00000  -0.00136  -0.00136   2.29223
    A6        1.91070   0.00002   0.00000  -0.00013  -0.00013   1.91057
    A7        2.13442  -0.00002   0.00000   0.00005   0.00005   2.13447
    A8        1.91085   0.00002   0.00000  -0.00030  -0.00030   1.91054
    A9        2.08038   0.00003   0.00000   0.00046   0.00046   2.08084
   A10        2.13479  -0.00004   0.00000  -0.00026  -0.00026   2.13454
   A11        1.91085   0.00002   0.00000  -0.00030  -0.00030   1.91054
   A12        2.13479  -0.00004   0.00000  -0.00026  -0.00026   2.13454
   A13        1.91070   0.00002   0.00000  -0.00013  -0.00013   1.91057
   A14        2.08038   0.00003   0.00000   0.00046   0.00046   2.08084
   A15        2.13442  -0.00002   0.00000   0.00005   0.00005   2.13447
   A16        1.83217  -0.00001   0.00000   0.00010   0.00010   1.83228
   A17        2.16581   0.00008   0.00000   0.00065   0.00065   2.16645
   A18        1.57092  -0.00001   0.00000  -0.00010  -0.00010   1.57082
   A19        2.21221  -0.00005   0.00000  -0.00027  -0.00027   2.21193
   A20        2.29301  -0.00006   0.00000  -0.00104  -0.00104   2.29197
   A21        1.74410  -0.00002   0.00000   0.00040   0.00040   1.74450
   A22        1.95997   0.00007   0.00000   0.00097   0.00097   1.96094
   A23        1.96010   0.00006   0.00000   0.00085   0.00085   1.96095
   A24        1.96010   0.00006   0.00000   0.00085   0.00085   1.96095
   A25        1.95997   0.00007   0.00000   0.00097   0.00097   1.96094
   A26        1.87962  -0.00021   0.00000  -0.00359  -0.00359   1.87603
   A27        2.29301  -0.00006   0.00000  -0.00104  -0.00104   2.29197
   A28        1.57092  -0.00001   0.00000  -0.00010  -0.00010   1.57082
   A29        2.21221  -0.00005   0.00000  -0.00027  -0.00027   2.21193
   A30        1.83217  -0.00001   0.00000   0.00010   0.00010   1.83228
   A31        2.16581   0.00008   0.00000   0.00065   0.00065   2.16645
   A32        1.83204   0.00001   0.00000   0.00007   0.00007   1.83211
   A33        2.21220  -0.00006   0.00000  -0.00024  -0.00024   2.21196
   A34        1.57067   0.00001   0.00000   0.00010   0.00010   1.57078
   A35        2.29359  -0.00008   0.00000  -0.00136  -0.00136   2.29223
   A36        2.16582   0.00007   0.00000   0.00067   0.00067   2.16649
    D1        0.36206  -0.00001   0.00000  -0.00048  -0.00048   0.36158
    D2        2.92206   0.00004   0.00000   0.00029   0.00029   2.92236
    D3       -2.38655  -0.00007   0.00000  -0.00193  -0.00193  -2.38848
    D4        0.17346  -0.00002   0.00000  -0.00115  -0.00115   0.17230
    D5       -0.00032   0.00001   0.00000   0.00036   0.00036   0.00004
    D6       -2.76267  -0.00001   0.00000  -0.00073  -0.00073  -2.76340
    D7        1.02523   0.00002   0.00000   0.00037   0.00037   1.02560
    D8        2.76170   0.00002   0.00000   0.00150   0.00150   2.76320
    D9       -0.00065   0.00001   0.00000   0.00041   0.00041  -0.00024
   D10       -2.49593   0.00004   0.00000   0.00151   0.00151  -2.49442
   D11       -1.02559  -0.00002   0.00000   0.00017   0.00017  -1.02542
   D12        2.49525  -0.00004   0.00000  -0.00092  -0.00092   2.49433
   D13       -0.00003  -0.00001   0.00000   0.00018   0.00018   0.00015
   D14       -2.41448  -0.00005   0.00000  -0.00009  -0.00009  -2.41457
   D15        0.00003   0.00001   0.00000  -0.00018  -0.00018  -0.00015
   D16        0.00031   0.00000   0.00000  -0.00019  -0.00019   0.00012
   D17        2.41483   0.00005   0.00000  -0.00028  -0.00028   2.41454
   D18       -0.56053   0.00002   0.00000   0.00026   0.00026  -0.56027
   D19       -2.64141  -0.00007   0.00000  -0.00137  -0.00137  -2.64278
   D20        1.52025   0.00012   0.00000   0.00198   0.00198   1.52223
   D21        0.56036  -0.00002   0.00000  -0.00007  -0.00007   0.56029
   D22       -1.52052  -0.00010   0.00000  -0.00170  -0.00170  -1.52223
   D23        2.64114   0.00008   0.00000   0.00165   0.00165   2.64279
   D24       -3.14120  -0.00001   0.00000  -0.00034  -0.00034  -3.14154
   D25        1.06111  -0.00010   0.00000  -0.00197  -0.00197   1.05913
   D26       -1.06042   0.00009   0.00000   0.00138   0.00138  -1.05904
   D27        2.38742   0.00006   0.00000   0.00128   0.00128   2.38870
   D28       -0.36152   0.00000   0.00000  -0.00012  -0.00012  -0.36164
   D29       -0.17344   0.00002   0.00000   0.00129   0.00129  -0.17215
   D30       -2.92237  -0.00003   0.00000  -0.00011  -0.00011  -2.92249
   D31       -0.36152   0.00000   0.00000  -0.00012  -0.00012  -0.36164
   D32        2.38742   0.00006   0.00000   0.00128   0.00128   2.38870
   D33       -2.92237  -0.00003   0.00000  -0.00011  -0.00011  -2.92249
   D34       -0.17344   0.00002   0.00000   0.00129   0.00129  -0.17215
   D35        0.56036  -0.00002   0.00000  -0.00007  -0.00007   0.56029
   D36        2.64114   0.00008   0.00000   0.00165   0.00165   2.64279
   D37       -1.52052  -0.00010   0.00000  -0.00170  -0.00170  -1.52223
   D38       -0.56053   0.00002   0.00000   0.00026   0.00026  -0.56027
   D39        1.52025   0.00012   0.00000   0.00198   0.00198   1.52223
   D40       -2.64141  -0.00007   0.00000  -0.00137  -0.00137  -2.64278
   D41       -3.14120  -0.00001   0.00000  -0.00034  -0.00034  -3.14154
   D42       -1.06042   0.00009   0.00000   0.00138   0.00138  -1.05904
   D43        1.06111  -0.00010   0.00000  -0.00197  -0.00197   1.05913
   D44        0.36206  -0.00001   0.00000  -0.00048  -0.00048   0.36158
   D45       -2.38655  -0.00007   0.00000  -0.00193  -0.00193  -2.38848
   D46        2.92206   0.00004   0.00000   0.00029   0.00029   2.92236
   D47        0.17346  -0.00002   0.00000  -0.00115  -0.00115   0.17230
   D48        0.00003   0.00001   0.00000  -0.00018  -0.00018  -0.00015
   D49        2.41483   0.00005   0.00000  -0.00028  -0.00028   2.41454
   D50       -2.41448  -0.00005   0.00000  -0.00009  -0.00009  -2.41457
   D51        0.00031   0.00000   0.00000  -0.00019  -0.00019   0.00012
   D52        1.02523   0.00002   0.00000   0.00037   0.00037   1.02560
   D53       -0.00003  -0.00001   0.00000   0.00018   0.00018   0.00015
   D54       -2.49593   0.00004   0.00000   0.00151   0.00151  -2.49442
   D55       -0.00032   0.00001   0.00000   0.00036   0.00036   0.00004
   D56       -1.02559  -0.00002   0.00000   0.00017   0.00017  -1.02542
   D57        2.76170   0.00002   0.00000   0.00150   0.00150   2.76320
   D58       -2.76267  -0.00001   0.00000  -0.00073  -0.00073  -2.76340
   D59        2.49525  -0.00004   0.00000  -0.00092  -0.00092   2.49433
   D60       -0.00065   0.00001   0.00000   0.00041   0.00041  -0.00024
         Item               Value     Threshold  Converged?
 Maximum Force            0.000269     0.000450     YES
 RMS     Force            0.000086     0.000300     YES
 Maximum Displacement     0.003373     0.001800     NO 
 RMS     Displacement     0.000794     0.001200     YES
 Predicted change in Energy=-3.002799D-06
 GradGradGradGradGradGradGradGradGradGradGradGradGradGradGradGradGradGrad

                          Input orientation:                          
 ---------------------------------------------------------------------
 Center     Atomic      Atomic             Coordinates (Angstroms)
 Number     Number       Type             X           Y           Z
 ---------------------------------------------------------------------
      1          6           0        0.000201   -1.093623   -0.716371
      2          6           0        0.828090   -0.830436    0.556372
      3          6           0       -0.828090    0.830436    0.556372
      4          6           0       -1.093596    0.003309   -0.716257
      5          1           0       -0.076138   -2.015631   -1.249204
      6          1           0       -2.015835   -0.070281   -1.249216
      7          6           0        0.000000    0.000000    1.541261
      8          1           0        0.628912    0.627122    2.192614
      9          1           0       -0.628912   -0.627122    2.192614
     10          6           0        1.093596   -0.003309   -0.716257
     11          1           0        2.015835    0.070281   -1.249216
     12          6           0       -0.000201    1.093623   -0.716371
     13          1           0        0.076138    2.015631   -1.249204
     14          1           0        1.541825   -1.546265    0.939408
     15          1           0       -1.541825    1.546265    0.939408
 ---------------------------------------------------------------------
                    Distance matrix (angstroms):
                    1          2          3          4          5
     1  C    0.000000
     2  C    1.540955   0.000000
     3  C    2.451110   2.345513   0.000000
     4  C    1.549081   2.451039   1.540849   0.000000
     5  H    1.067632   2.341457   3.453351   2.322795   0.000000
     6  H    2.322833   3.453389   2.341405   1.067701   2.747147
     7  C    2.508568   1.531459   1.531459   2.508456   3.443147
     8  H    3.437795   2.200326   2.200337   3.437689   4.396288
     9  H    3.012574   2.200337   2.200326   3.012458   3.752283
    10  C    1.544117   1.540849   2.451039   2.187202   2.387834
    11  H    2.387756   2.341405   3.453389   3.155486   2.954214
    12  C    2.187245   2.451110   1.540955   1.544117   3.155493
    13  H    3.155493   3.453351   2.341457   2.387834   4.034138
    14  H    2.307183   1.080993   3.378154   3.476759   2.761907
    15  H    3.476846   3.378154   1.080993   2.307130   4.430053
                    6          7          8          9         10
     6  H    0.000000
     7  C    3.443152   0.000000
     8  H    4.396277   1.101396   0.000000
     9  H    3.752309   1.101396   1.776301   0.000000
    10  C    3.155486   2.508456   3.012458   3.437689   0.000000
    11  H    4.034120   3.443152   3.752309   4.396277   1.067701
    12  C    2.387756   2.508568   3.012574   3.437795   1.549081
    13  H    2.954214   3.443147   3.752283   4.396288   2.322795
    14  H    4.430074   2.265036   2.669746   2.669728   2.307130
    15  H    2.761880   2.265036   2.669728   2.669746   3.476759
                   11         12         13         14         15
    11  H    0.000000
    12  C    2.322833   0.000000
    13  H    2.747147   1.067632   0.000000
    14  H    2.761880   3.476846   4.430053   0.000000
    15  H    4.430074   2.307183   2.761907   4.367223   0.000000
 Stoichiometry    C7H8
 Framework group  C2[C2(C),X(C6H8)]
 Deg. of freedom    20
 Full point group                 C2      NOp   2
 Largest Abelian subgroup         C2      NOp   2
 Largest concise Abelian subgroup C2      NOp   2
                         Standard orientation:                         
 ---------------------------------------------------------------------
 Center     Atomic      Atomic             Coordinates (Angstroms)
 Number     Number       Type             X           Y           Z
 ---------------------------------------------------------------------
      1          6           0        0.000000    1.093623   -0.716365
      2          6           0       -0.827938    0.830588    0.556378
      3          6           0        0.827938   -0.830588    0.556378
      4          6           0        1.093596   -0.003510   -0.716251
      5          1           0        0.076508    2.015617   -1.249198
      6          1           0        2.015848    0.069911   -1.249210
      7          6           0        0.000000    0.000000    1.541267
      8          1           0       -0.629027   -0.627006    2.192620
      9          1           0        0.629027    0.627006    2.192620
     10          6           0       -1.093596    0.003510   -0.716251
     11          1           0       -2.015848   -0.069911   -1.249210
     12          6           0        0.000000   -1.093623   -0.716365
     13          1           0       -0.076508   -2.015617   -1.249198
     14          1           0       -1.541541    1.546548    0.939414
     15          1           0        1.541541   -1.546548    0.939414
 ---------------------------------------------------------------------
 Rotational constants (GHZ):      4.3082770      4.2822045      3.2122592
 Standard basis: VSTO-6G (5D, 7F)
 There are    18 symmetry adapted cartesian basis functions of A   symmetry.
 There are    18 symmetry adapted cartesian basis functions of B   symmetry.
 There are    18 symmetry adapted basis functions of A   symmetry.
 There are    18 symmetry adapted basis functions of B   symmetry.
    36 basis functions,   216 primitive gaussians,    36 cartesian basis functions
    18 alpha electrons       18 beta electrons
       nuclear repulsion energy       168.9320210839 Hartrees.
 Integral buffers will be    131072 words long.
 Regular integral format.
 Two-electron integral symmetry is turned off.
 Nuclear repulsion after empirical dispersion term =      168.9292276214 Hartrees.
 ------------------------------------------------------------------------------
 Polarizable Continuum Model (PCM)
 =================================
 Model                : C-PCM.
 Atomic radii         : UFF (Universal Force Field).
 Polarization charges : Total charges.
 Charge compensation  : None.
 Solution method      : On-the-fly selection.
 Cavity type          : Scaled VdW (van der Waals Surface) (Alpha=1.100).
 Cavity algorithm     : GePol (No added spheres)
                        Default sphere list used, NSphG=   15.
                        Lebedev-Laikov grids with approx.  5.0 points / Ang**2.
                        Smoothing algorithm: Karplus/York (Gamma=1.0000).
                        Polarization charges: spherical gaussians, with
                                              point-specific exponents (IZeta= 3).
                        Self-potential: point-specific (ISelfS= 7).
                        Self-field    : sphere-specific E.n sum rule (ISelfD= 2).
 1st derivatives      : Analytical E(r).r(x)/FMM algorithm (CHGder, D1EAlg=3).
                        Cavity 1st derivative terms included.
 Solvent              : Water, Eps=  78.355300 Eps(inf)=   1.777849
 ------------------------------------------------------------------------------
 Spheres list:
 ISph  on   Nord     Re0    Alpha      Xe            Ye            Ze
    1   C      1    1.9255  1.100      0.000000      1.093623     -0.716365
    2   C      2    1.9255  1.100     -0.827938      0.830588      0.556378
    3   C      3    1.9255  1.100      0.827938     -0.830588      0.556378
    4   C      4    1.9255  1.100      1.093596     -0.003510     -0.716251
    5   H      5    1.4430  1.100      0.076508      2.015617     -1.249198
    6   H      6    1.4430  1.100      2.015848      0.069911     -1.249210
    7   C      7    1.9255  1.100      0.000000      0.000000      1.541267
    8   H      8    1.4430  1.100     -0.629027     -0.627006      2.192620
    9   H      9    1.4430  1.100      0.629027      0.627006      2.192620
   10   C     10    1.9255  1.100     -1.093596      0.003510     -0.716251
   11   H     11    1.4430  1.100     -2.015848     -0.069911     -1.249210
   12   C     12    1.9255  1.100      0.000000     -1.093623     -0.716365
   13   H     13    1.4430  1.100     -0.076508     -2.015617     -1.249198
   14   H     14    1.4430  1.100     -1.541541      1.546548      0.939414
   15   H     15    1.4430  1.100      1.541541     -1.546548      0.939414
 ------------------------------------------------------------------------------
 Do NDO integrals.
 One-electron integrals computed using PRISM.
 NBasis=    36 RedAO= T EigKep=  7.07D-01  NBF=    18    18
 NBsUse=    36 1.00D-06 EigRej= -1.00D+00 NBFU=    18    18
 Initial guess from the checkpoint file:  "quadricyclane_cycloaddition_PM6_toluene_water.chk"
 B after Tr=     0.000000    0.000000    0.000000
         Rot=    1.000000    0.000000    0.000000    0.000107 Ang=   0.01 deg.
 Initial guess orbital symmetries:
       Occupied  (A) (B) (A) (B) (A) (B) (A) (A) (B) (B) (A) (A)
                 (B) (B) (A) (B) (A) (B)
       Virtual   (B) (A) (B) (A) (A) (B) (B) (B) (A) (A) (B) (A)
                 (B) (B) (A) (A) (B) (A)
 Overlap will be assumed to be unity.
 Keep J ints in memory in canonical form, NReq=4584167.
 Requested convergence on RMS density matrix=1.00D-08 within 128 cycles.
 Requested convergence on MAX density matrix=1.00D-06.
 Requested convergence on             energy=1.00D-06.
 No special actions if energy rises.
 Inv3:  Mode=1 IEnd=     4113723.
 Iteration    1 A*A^-1 deviation from unit magnitude is 3.55D-15 for    555.
 Iteration    1 A*A^-1 deviation from orthogonality  is 3.02D-15 for   1160   1007.
 Iteration    1 A^-1*A deviation from unit magnitude is 3.55D-15 for    555.
 Iteration    1 A^-1*A deviation from orthogonality  is 2.24D-15 for   1160   1007.
 Fock symm off for IB=2 I1=   18 I=   36 J=   15 Cut=1.00D-04 Err=1.07D-04
 Fock matrix is not symmetric: symmetry in diagonalization turned off.
 Error on total polarization charges =  0.00031
 SCF Done:  E(RPM6D3) =  0.117102650579     A.U. after    9 cycles
            NFock=  8  Conv=0.95D-08     -V/T= 1.0052
 D1PCM: C-PCM CHGder 1st derivatives, ID1Alg=3 FixD1E=F DoIter=F DoCFld=F I1PDM=0.
 Calling FoFJK, ICntrl=      2127 FMM=F ISym2X=1 I1Cent= 0 IOpClX= 0 NMat=1 NMatS=1 NMatT=0.
 ***** Axes restored to original set *****
 -------------------------------------------------------------------
 Center     Atomic                   Forces (Hartrees/Bohr)
 Number     Number              X              Y              Z
 -------------------------------------------------------------------
      1        6          -0.000119648    0.000182244    0.000116661
      2        6          -0.000152373    0.000134393    0.000030317
      3        6           0.000152373   -0.000134393    0.000030317
      4        6           0.000139068   -0.000111607    0.000017972
      5        1           0.000056834   -0.000064058   -0.000026710
      6        1          -0.000044208    0.000049135   -0.000007150
      7        6           0.000000000    0.000000000   -0.000523080
      8        1          -0.000042920   -0.000042939    0.000135676
      9        1           0.000042920    0.000042939    0.000135676
     10        6          -0.000139068    0.000111607    0.000017972
     11        1           0.000044208   -0.000049135   -0.000007150
     12        6           0.000119648   -0.000182244    0.000116661
     13        1          -0.000056834    0.000064058   -0.000026710
     14        1           0.000020814   -0.000018495   -0.000005225
     15        1          -0.000020814    0.000018495   -0.000005225
 -------------------------------------------------------------------
 Cartesian Forces:  Max     0.000523080 RMS     0.000116928

 GradGradGradGradGradGradGradGradGradGradGradGradGradGradGradGradGradGrad
 Berny optimization.
 Using GEDIIS/GDIIS optimizer.
 FormGI is forming the generalized inverse of G from B-inverse, IUseBI=4.
 Internal  Forces:  Max     0.000175736 RMS     0.000039264
 Search for a local minimum.
 Step number   2 out of a maximum of  100
 All quantities printed in internal units (Hartrees-Bohrs-Radians)
 Mixed Optimization -- En-DIIS/RFO-DIIS
 Swapping is turned off.
 Update second derivatives using D2CorX and points    1    2
 DE= -3.62D-06 DEPred=-3.00D-06 R= 1.20D+00
 TightC=F SS=  1.41D+00  RLast= 9.79D-03 DXNew= 5.0454D-01 2.9362D-02
 Trust test= 1.20D+00 RLast= 9.79D-03 DXMaxT set to 3.00D-01
 ITU=  1  0
     Eigenvalues ---    0.00904   0.01000   0.01477   0.01524   0.01598
     Eigenvalues ---    0.01821   0.01933   0.01963   0.03894   0.04279
     Eigenvalues ---    0.05995   0.06189   0.06352   0.07089   0.07269
     Eigenvalues ---    0.07731   0.09501   0.09820   0.10248   0.14687
     Eigenvalues ---    0.15527   0.17756   0.19586   0.21055   0.22280
     Eigenvalues ---    0.25873   0.26457   0.26626   0.27717   0.28281
     Eigenvalues ---    0.32170   0.33557   0.34296   0.35917   0.36686
     Eigenvalues ---    0.37555   0.37558   0.37579   0.40458
 En-DIIS/RFO-DIIS IScMMF=        0 using points:     2    1
 RFO step:  Lambda=-4.64023145D-07.
 DidBck=F Rises=F RFO-DIIS coefs:    1.25731   -0.25731
 Iteration  1 RMS(Cart)=  0.00037595 RMS(Int)=  0.00000034
 Iteration  2 RMS(Cart)=  0.00000024 RMS(Int)=  0.00000022
 ClnCor:  largest displacement from symmetrization is 1.78D-12 for atom    15.
 Variable       Old X    -DE/DX   Delta X   Delta X   Delta X     New X
                                 (Linear)    (Quad)   (Total)
    R1        2.91198  -0.00006   0.00006  -0.00035  -0.00029   2.91169
    R2        2.92734  -0.00015   0.00021  -0.00062  -0.00041   2.92693
    R3        2.01753   0.00006   0.00018   0.00019   0.00038   2.01791
    R4        2.91796  -0.00002  -0.00006   0.00002  -0.00005   2.91791
    R5        2.89404  -0.00018   0.00012  -0.00086  -0.00074   2.89330
    R6        2.91178  -0.00004   0.00010  -0.00021  -0.00011   2.91167
    R7        2.04278   0.00002   0.00017   0.00006   0.00023   2.04301
    R8        2.91178  -0.00004   0.00010  -0.00021  -0.00011   2.91167
    R9        2.89404  -0.00018   0.00012  -0.00086  -0.00074   2.89330
   R10        2.91198  -0.00006   0.00006  -0.00035  -0.00029   2.91169
   R11        2.04278   0.00002   0.00017   0.00006   0.00023   2.04301
   R12        2.01766   0.00004   0.00014   0.00011   0.00025   2.01791
   R13        2.91796  -0.00002  -0.00006   0.00002  -0.00005   2.91791
   R14        2.08134   0.00003   0.00013   0.00010   0.00023   2.08156
   R15        2.08134   0.00003   0.00013   0.00010   0.00023   2.08156
   R16        2.01766   0.00004   0.00014   0.00011   0.00025   2.01791
   R17        2.92734  -0.00015   0.00021  -0.00062  -0.00041   2.92693
   R18        2.01753   0.00006   0.00018   0.00019   0.00038   2.01791
    A1        1.83211  -0.00001   0.00002   0.00006   0.00007   1.83218
    A2        2.21196  -0.00002  -0.00006  -0.00025  -0.00031   2.21164
    A3        2.16649   0.00003   0.00017   0.00039   0.00057   2.16705
    A4        1.57078   0.00000   0.00003  -0.00006  -0.00004   1.57074
    A5        2.29223  -0.00003  -0.00035  -0.00044  -0.00079   2.29145
    A6        1.91057   0.00001  -0.00003  -0.00009  -0.00013   1.91045
    A7        2.13447  -0.00002   0.00001  -0.00007  -0.00005   2.13441
    A8        1.91054   0.00001  -0.00008   0.00006  -0.00002   1.91053
    A9        2.08084   0.00001   0.00012   0.00008   0.00020   2.08104
   A10        2.13454  -0.00002  -0.00007  -0.00011  -0.00017   2.13437
   A11        1.91054   0.00001  -0.00008   0.00006  -0.00002   1.91053
   A12        2.13454  -0.00002  -0.00007  -0.00011  -0.00017   2.13437
   A13        1.91057   0.00001  -0.00003  -0.00009  -0.00013   1.91045
   A14        2.08084   0.00001   0.00012   0.00008   0.00020   2.08104
   A15        2.13447  -0.00002   0.00001  -0.00007  -0.00005   2.13441
   A16        1.83228  -0.00002   0.00003  -0.00017  -0.00014   1.83213
   A17        2.16645   0.00004   0.00017   0.00043   0.00059   2.16705
   A18        1.57082   0.00000  -0.00003   0.00006   0.00004   1.57085
   A19        2.21193  -0.00001  -0.00007  -0.00024  -0.00031   2.21162
   A20        2.29197  -0.00002  -0.00027  -0.00023  -0.00050   2.29146
   A21        1.74450   0.00000   0.00010   0.00012   0.00023   1.74472
   A22        1.96094   0.00002   0.00025   0.00043   0.00068   1.96162
   A23        1.96095   0.00002   0.00022   0.00043   0.00065   1.96160
   A24        1.96095   0.00002   0.00022   0.00043   0.00065   1.96160
   A25        1.96094   0.00002   0.00025   0.00043   0.00068   1.96162
   A26        1.87603  -0.00008  -0.00092  -0.00164  -0.00256   1.87347
   A27        2.29197  -0.00002  -0.00027  -0.00023  -0.00050   2.29146
   A28        1.57082   0.00000  -0.00003   0.00006   0.00004   1.57085
   A29        2.21193  -0.00001  -0.00007  -0.00024  -0.00031   2.21162
   A30        1.83228  -0.00002   0.00003  -0.00017  -0.00014   1.83213
   A31        2.16645   0.00004   0.00017   0.00043   0.00059   2.16705
   A32        1.83211  -0.00001   0.00002   0.00006   0.00007   1.83218
   A33        2.21196  -0.00002  -0.00006  -0.00025  -0.00031   2.21164
   A34        1.57078   0.00000   0.00003  -0.00006  -0.00004   1.57074
   A35        2.29223  -0.00003  -0.00035  -0.00044  -0.00079   2.29145
   A36        2.16649   0.00003   0.00017   0.00039   0.00057   2.16705
    D1        0.36158   0.00000  -0.00012   0.00027   0.00014   0.36172
    D2        2.92236   0.00001   0.00008   0.00017   0.00025   2.92260
    D3       -2.38848  -0.00002  -0.00050  -0.00036  -0.00086  -2.38933
    D4        0.17230  -0.00002  -0.00030  -0.00045  -0.00075   0.17155
    D5        0.00004   0.00000   0.00009  -0.00032  -0.00022  -0.00018
    D6       -2.76340   0.00000  -0.00019  -0.00027  -0.00046  -2.76386
    D7        1.02560  -0.00001   0.00010  -0.00037  -0.00028   1.02533
    D8        2.76320   0.00001   0.00039   0.00011   0.00049   2.76369
    D9       -0.00024   0.00000   0.00010   0.00015   0.00026   0.00002
   D10       -2.49442   0.00000   0.00039   0.00005   0.00044  -2.49398
   D11       -1.02542   0.00000   0.00004  -0.00027  -0.00022  -1.02564
   D12        2.49433   0.00000  -0.00024  -0.00022  -0.00046   2.49387
   D13        0.00015  -0.00001   0.00005  -0.00033  -0.00028  -0.00013
   D14       -2.41457  -0.00003  -0.00002  -0.00024  -0.00026  -2.41483
   D15       -0.00015   0.00001  -0.00005   0.00032   0.00028   0.00013
   D16        0.00012   0.00000  -0.00005  -0.00010  -0.00014  -0.00003
   D17        2.41454   0.00004  -0.00007   0.00046   0.00039   2.41493
   D18       -0.56027  -0.00001   0.00007  -0.00014  -0.00008  -0.56035
   D19       -2.64278  -0.00005  -0.00035  -0.00090  -0.00125  -2.64403
   D20        1.52223   0.00003   0.00051   0.00061   0.00112   1.52335
   D21        0.56029   0.00001  -0.00002  -0.00002  -0.00004   0.56025
   D22       -1.52223  -0.00003  -0.00044  -0.00078  -0.00122  -1.52344
   D23        2.64279   0.00005   0.00043   0.00073   0.00116   2.64395
   D24       -3.14154   0.00000  -0.00009   0.00000  -0.00009   3.14156
   D25        1.05913  -0.00004  -0.00051  -0.00075  -0.00126   1.05787
   D26       -1.05904   0.00004   0.00036   0.00076   0.00111  -1.05792
   D27        2.38870   0.00001   0.00033   0.00041   0.00074   2.38944
   D28       -0.36164   0.00000  -0.00003   0.00026   0.00023  -0.36141
   D29       -0.17215   0.00001   0.00033   0.00031   0.00064  -0.17151
   D30       -2.92249   0.00000  -0.00003   0.00016   0.00013  -2.92236
   D31       -0.36164   0.00000  -0.00003   0.00026   0.00023  -0.36141
   D32        2.38870   0.00001   0.00033   0.00041   0.00074   2.38944
   D33       -2.92249   0.00000  -0.00003   0.00016   0.00013  -2.92236
   D34       -0.17215   0.00001   0.00033   0.00031   0.00064  -0.17151
   D35        0.56029   0.00001  -0.00002  -0.00002  -0.00004   0.56025
   D36        2.64279   0.00005   0.00043   0.00073   0.00116   2.64395
   D37       -1.52223  -0.00003  -0.00044  -0.00078  -0.00122  -1.52344
   D38       -0.56027  -0.00001   0.00007  -0.00014  -0.00008  -0.56035
   D39        1.52223   0.00003   0.00051   0.00061   0.00112   1.52335
   D40       -2.64278  -0.00005  -0.00035  -0.00090  -0.00125  -2.64403
   D41       -3.14154   0.00000  -0.00009   0.00000  -0.00009   3.14156
   D42       -1.05904   0.00004   0.00036   0.00076   0.00111  -1.05792
   D43        1.05913  -0.00004  -0.00051  -0.00075  -0.00126   1.05787
   D44        0.36158   0.00000  -0.00012   0.00027   0.00014   0.36172
   D45       -2.38848  -0.00002  -0.00050  -0.00036  -0.00086  -2.38933
   D46        2.92236   0.00001   0.00008   0.00017   0.00025   2.92260
   D47        0.17230  -0.00002  -0.00030  -0.00045  -0.00075   0.17155
   D48       -0.00015   0.00001  -0.00005   0.00032   0.00028   0.00013
   D49        2.41454   0.00004  -0.00007   0.00046   0.00039   2.41493
   D50       -2.41457  -0.00003  -0.00002  -0.00024  -0.00026  -2.41483
   D51        0.00012   0.00000  -0.00005  -0.00010  -0.00014  -0.00003
   D52        1.02560  -0.00001   0.00010  -0.00037  -0.00028   1.02533
   D53        0.00015  -0.00001   0.00005  -0.00033  -0.00028  -0.00013
   D54       -2.49442   0.00000   0.00039   0.00005   0.00044  -2.49398
   D55        0.00004   0.00000   0.00009  -0.00032  -0.00022  -0.00018
   D56       -1.02542   0.00000   0.00004  -0.00027  -0.00022  -1.02564
   D57        2.76320   0.00001   0.00039   0.00011   0.00049   2.76369
   D58       -2.76340   0.00000  -0.00019  -0.00027  -0.00046  -2.76386
   D59        2.49433   0.00000  -0.00024  -0.00022  -0.00046   2.49387
   D60       -0.00024   0.00000   0.00010   0.00015   0.00026   0.00002
         Item               Value     Threshold  Converged?
 Maximum Force            0.000176     0.000450     YES
 RMS     Force            0.000039     0.000300     YES
 Maximum Displacement     0.001408     0.001800     YES
 RMS     Displacement     0.000376     0.001200     YES
 Predicted change in Energy=-8.269036D-07
 Optimization completed.
    -- Stationary point found.
                           ----------------------------
                           !   Optimized Parameters   !
                           ! (Angstroms and Degrees)  !
 --------------------------                            --------------------------
 ! Name  Definition              Value          Derivative Info.                !
 --------------------------------------------------------------------------------
 ! R1    R(1,2)                  1.541          -DE/DX =   -0.0001              !
 ! R2    R(1,4)                  1.5491         -DE/DX =   -0.0001              !
 ! R3    R(1,5)                  1.0676         -DE/DX =    0.0001              !
 ! R4    R(1,10)                 1.5441         -DE/DX =    0.0                 !
 ! R5    R(2,7)                  1.5315         -DE/DX =   -0.0002              !
 ! R6    R(2,10)                 1.5408         -DE/DX =    0.0                 !
 ! R7    R(2,14)                 1.081          -DE/DX =    0.0                 !
 ! R8    R(3,4)                  1.5408         -DE/DX =    0.0                 !
 ! R9    R(3,7)                  1.5315         -DE/DX =   -0.0002              !
 ! R10   R(3,12)                 1.541          -DE/DX =   -0.0001              !
 ! R11   R(3,15)                 1.081          -DE/DX =    0.0                 !
 ! R12   R(4,6)                  1.0677         -DE/DX =    0.0                 !
 ! R13   R(4,12)                 1.5441         -DE/DX =    0.0                 !
 ! R14   R(7,8)                  1.1014         -DE/DX =    0.0                 !
 ! R15   R(7,9)                  1.1014         -DE/DX =    0.0                 !
 ! R16   R(10,11)                1.0677         -DE/DX =    0.0                 !
 ! R17   R(10,12)                1.5491         -DE/DX =   -0.0001              !
 ! R18   R(12,13)                1.0676         -DE/DX =    0.0001              !
 ! A1    A(2,1,4)              104.9722         -DE/DX =    0.0                 !
 ! A2    A(2,1,5)              126.7357         -DE/DX =    0.0                 !
 ! A3    A(4,1,5)              124.1306         -DE/DX =    0.0                 !
 ! A4    A(4,1,10)              89.9989         -DE/DX =    0.0                 !
 ! A5    A(5,1,10)             131.3353         -DE/DX =    0.0                 !
 ! A6    A(1,2,7)              109.4678         -DE/DX =    0.0                 !
 ! A7    A(1,2,14)             122.296          -DE/DX =    0.0                 !
 ! A8    A(7,2,10)             109.4662         -DE/DX =    0.0                 !
 ! A9    A(7,2,14)             119.2234         -DE/DX =    0.0                 !
 ! A10   A(10,2,14)            122.3001         -DE/DX =    0.0                 !
 ! A11   A(4,3,7)              109.4662         -DE/DX =    0.0                 !
 ! A12   A(4,3,15)             122.3001         -DE/DX =    0.0                 !
 ! A13   A(7,3,12)             109.4678         -DE/DX =    0.0                 !
 ! A14   A(7,3,15)             119.2234         -DE/DX =    0.0                 !
 ! A15   A(12,3,15)            122.296          -DE/DX =    0.0                 !
 ! A16   A(1,4,3)              104.9817         -DE/DX =    0.0                 !
 ! A17   A(1,4,6)              124.1287         -DE/DX =    0.0                 !
 ! A18   A(1,4,12)              90.0011         -DE/DX =    0.0                 !
 ! A19   A(3,4,6)              126.7345         -DE/DX =    0.0                 !
 ! A20   A(6,4,12)             131.32           -DE/DX =    0.0                 !
 ! A21   A(2,7,3)               99.9524         -DE/DX =    0.0                 !
 ! A22   A(2,7,8)              112.3534         -DE/DX =    0.0                 !
 ! A23   A(2,7,9)              112.3543         -DE/DX =    0.0                 !
 ! A24   A(3,7,8)              112.3543         -DE/DX =    0.0                 !
 ! A25   A(3,7,9)              112.3534         -DE/DX =    0.0                 !
 ! A26   A(8,7,9)              107.4888         -DE/DX =   -0.0001              !
 ! A27   A(1,10,11)            131.32           -DE/DX =    0.0                 !
 ! A28   A(1,10,12)             90.0011         -DE/DX =    0.0                 !
 ! A29   A(2,10,11)            126.7345         -DE/DX =    0.0                 !
 ! A30   A(2,10,12)            104.9817         -DE/DX =    0.0                 !
 ! A31   A(11,10,12)           124.1287         -DE/DX =    0.0                 !
 ! A32   A(3,12,10)            104.9722         -DE/DX =    0.0                 !
 ! A33   A(3,12,13)            126.7357         -DE/DX =    0.0                 !
 ! A34   A(4,12,10)             89.9989         -DE/DX =    0.0                 !
 ! A35   A(4,12,13)            131.3353         -DE/DX =    0.0                 !
 ! A36   A(10,12,13)           124.1306         -DE/DX =    0.0                 !
 ! D1    D(4,1,2,7)             20.7168         -DE/DX =    0.0                 !
 ! D2    D(4,1,2,14)           167.4387         -DE/DX =    0.0                 !
 ! D3    D(5,1,2,7)           -136.8496         -DE/DX =    0.0                 !
 ! D4    D(5,1,2,14)             9.8723         -DE/DX =    0.0                 !
 ! D5    D(2,1,4,3)              0.0022         -DE/DX =    0.0                 !
 ! D6    D(2,1,4,6)           -158.3314         -DE/DX =    0.0                 !
 ! D7    D(2,1,4,12)            58.7628         -DE/DX =    0.0                 !
 ! D8    D(5,1,4,3)            158.3198         -DE/DX =    0.0                 !
 ! D9    D(5,1,4,6)             -0.0137         -DE/DX =    0.0                 !
 ! D10   D(5,1,4,12)          -142.9196         -DE/DX =    0.0                 !
 ! D11   D(10,1,4,3)           -58.7521         -DE/DX =    0.0                 !
 ! D12   D(10,1,4,6)           142.9143         -DE/DX =    0.0                 !
 ! D13   D(10,1,4,12)            0.0085         -DE/DX =    0.0                 !
 ! D14   D(4,1,10,11)         -138.3447         -DE/DX =    0.0                 !
 ! D15   D(4,1,10,12)           -0.0085         -DE/DX =    0.0                 !
 ! D16   D(5,1,10,11)            0.0068         -DE/DX =    0.0                 !
 ! D17   D(5,1,10,12)          138.3431         -DE/DX =    0.0                 !
 ! D18   D(1,2,7,3)            -32.1012         -DE/DX =    0.0                 !
 ! D19   D(1,2,7,8)           -151.4203         -DE/DX =    0.0                 !
 ! D20   D(1,2,7,9)             87.2174         -DE/DX =    0.0                 !
 ! D21   D(10,2,7,3)            32.1021         -DE/DX =    0.0                 !
 ! D22   D(10,2,7,8)           -87.2171         -DE/DX =    0.0                 !
 ! D23   D(10,2,7,9)           151.4206         -DE/DX =    0.0                 !
 ! D24   D(14,2,7,3)           180.0031         -DE/DX =    0.0                 !
 ! D25   D(14,2,7,8)            60.6839         -DE/DX =    0.0                 !
 ! D26   D(14,2,7,9)           -60.6784         -DE/DX =    0.0                 !
 ! D27   D(7,2,10,11)          136.8624         -DE/DX =    0.0                 !
 ! D28   D(7,2,10,12)          -20.7204         -DE/DX =    0.0                 !
 ! D29   D(14,2,10,11)          -9.8633         -DE/DX =    0.0                 !
 ! D30   D(14,2,10,12)        -167.4461         -DE/DX =    0.0                 !
 ! D31   D(7,3,4,1)            -20.7204         -DE/DX =    0.0                 !
 ! D32   D(7,3,4,6)            136.8624         -DE/DX =    0.0                 !
 ! D33   D(15,3,4,1)          -167.4461         -DE/DX =    0.0                 !
 ! D34   D(15,3,4,6)            -9.8633         -DE/DX =    0.0                 !
 ! D35   D(4,3,7,2)             32.1021         -DE/DX =    0.0                 !
 ! D36   D(4,3,7,8)            151.4206         -DE/DX =    0.0                 !
 ! D37   D(4,3,7,9)            -87.2171         -DE/DX =    0.0                 !
 ! D38   D(12,3,7,2)           -32.1012         -DE/DX =    0.0                 !
 ! D39   D(12,3,7,8)            87.2174         -DE/DX =    0.0                 !
 ! D40   D(12,3,7,9)          -151.4203         -DE/DX =    0.0                 !
 ! D41   D(15,3,7,2)           180.0031         -DE/DX =    0.0                 !
 ! D42   D(15,3,7,8)           -60.6784         -DE/DX =    0.0                 !
 ! D43   D(15,3,7,9)            60.6839         -DE/DX =    0.0                 !
 ! D44   D(7,3,12,10)           20.7168         -DE/DX =    0.0                 !
 ! D45   D(7,3,12,13)         -136.8496         -DE/DX =    0.0                 !
 ! D46   D(15,3,12,10)         167.4387         -DE/DX =    0.0                 !
 ! D47   D(15,3,12,13)           9.8723         -DE/DX =    0.0                 !
 ! D48   D(1,4,12,10)           -0.0085         -DE/DX =    0.0                 !
 ! D49   D(1,4,12,13)          138.3431         -DE/DX =    0.0                 !
 ! D50   D(6,4,12,10)         -138.3447         -DE/DX =    0.0                 !
 ! D51   D(6,4,12,13)            0.0068         -DE/DX =    0.0                 !
 ! D52   D(1,10,12,3)           58.7628         -DE/DX =    0.0                 !
 ! D53   D(1,10,12,4)            0.0085         -DE/DX =    0.0                 !
 ! D54   D(1,10,12,13)        -142.9196         -DE/DX =    0.0                 !
 ! D55   D(2,10,12,3)            0.0022         -DE/DX =    0.0                 !
 ! D56   D(2,10,12,4)          -58.7521         -DE/DX =    0.0                 !
 ! D57   D(2,10,12,13)         158.3198         -DE/DX =    0.0                 !
 ! D58   D(11,10,12,3)        -158.3314         -DE/DX =    0.0                 !
 ! D59   D(11,10,12,4)         142.9143         -DE/DX =    0.0                 !
 ! D60   D(11,10,12,13)         -0.0137         -DE/DX =    0.0                 !
 --------------------------------------------------------------------------------
 GradGradGradGradGradGradGradGradGradGradGradGradGradGradGradGradGradGrad

                          Input orientation:                          
 ---------------------------------------------------------------------
 Center     Atomic      Atomic             Coordinates (Angstroms)
 Number     Number       Type             X           Y           Z
 ---------------------------------------------------------------------
      1          6           0        0.000201   -1.093623   -0.716371
      2          6           0        0.828090   -0.830436    0.556372
      3          6           0       -0.828090    0.830436    0.556372
      4          6           0       -1.093596    0.003309   -0.716257
      5          1           0       -0.076138   -2.015631   -1.249204
      6          1           0       -2.015835   -0.070281   -1.249216
      7          6           0        0.000000    0.000000    1.541261
      8          1           0        0.628912    0.627122    2.192614
      9          1           0       -0.628912   -0.627122    2.192614
     10          6           0        1.093596   -0.003309   -0.716257
     11          1           0        2.015835    0.070281   -1.249216
     12          6           0       -0.000201    1.093623   -0.716371
     13          1           0        0.076138    2.015631   -1.249204
     14          1           0        1.541825   -1.546265    0.939408
     15          1           0       -1.541825    1.546265    0.939408
 ---------------------------------------------------------------------
                    Distance matrix (angstroms):
                    1          2          3          4          5
     1  C    0.000000
     2  C    1.540955   0.000000
     3  C    2.451110   2.345513   0.000000
     4  C    1.549081   2.451039   1.540849   0.000000
     5  H    1.067632   2.341457   3.453351   2.322795   0.000000
     6  H    2.322833   3.453389   2.341405   1.067701   2.747147
     7  C    2.508568   1.531459   1.531459   2.508456   3.443147
     8  H    3.437795   2.200326   2.200337   3.437689   4.396288
     9  H    3.012574   2.200337   2.200326   3.012458   3.752283
    10  C    1.544117   1.540849   2.451039   2.187202   2.387834
    11  H    2.387756   2.341405   3.453389   3.155486   2.954214
    12  C    2.187245   2.451110   1.540955   1.544117   3.155493
    13  H    3.155493   3.453351   2.341457   2.387834   4.034138
    14  H    2.307183   1.080993   3.378154   3.476759   2.761907
    15  H    3.476846   3.378154   1.080993   2.307130   4.430053
                    6          7          8          9         10
     6  H    0.000000
     7  C    3.443152   0.000000
     8  H    4.396277   1.101396   0.000000
     9  H    3.752309   1.101396   1.776301   0.000000
    10  C    3.155486   2.508456   3.012458   3.437689   0.000000
    11  H    4.034120   3.443152   3.752309   4.396277   1.067701
    12  C    2.387756   2.508568   3.012574   3.437795   1.549081
    13  H    2.954214   3.443147   3.752283   4.396288   2.322795
    14  H    4.430074   2.265036   2.669746   2.669728   2.307130
    15  H    2.761880   2.265036   2.669728   2.669746   3.476759
                   11         12         13         14         15
    11  H    0.000000
    12  C    2.322833   0.000000
    13  H    2.747147   1.067632   0.000000
    14  H    2.761880   3.476846   4.430053   0.000000
    15  H    4.430074   2.307183   2.761907   4.367223   0.000000
 Stoichiometry    C7H8
 Framework group  C2[C2(C),X(C6H8)]
 Deg. of freedom    20
 Full point group                 C2      NOp   2
 Largest Abelian subgroup         C2      NOp   2
 Largest concise Abelian subgroup C2      NOp   2
                         Standard orientation:                         
 ---------------------------------------------------------------------
 Center     Atomic      Atomic             Coordinates (Angstroms)
 Number     Number       Type             X           Y           Z
 ---------------------------------------------------------------------
      1          6           0        0.000000    1.093623   -0.716365
      2          6           0       -0.827938    0.830588    0.556378
      3          6           0        0.827938   -0.830588    0.556378
      4          6           0        1.093596   -0.003510   -0.716251
      5          1           0        0.076508    2.015617   -1.249198
      6          1           0        2.015848    0.069911   -1.249210
      7          6           0        0.000000    0.000000    1.541267
      8          1           0       -0.629027   -0.627006    2.192620
      9          1           0        0.629027    0.627006    2.192620
     10          6           0       -1.093596    0.003510   -0.716251
     11          1           0       -2.015848   -0.069911   -1.249210
     12          6           0        0.000000   -1.093623   -0.716365
     13          1           0       -0.076508   -2.015617   -1.249198
     14          1           0       -1.541541    1.546548    0.939414
     15          1           0        1.541541   -1.546548    0.939414
 ---------------------------------------------------------------------
 Rotational constants (GHZ):      4.3082770      4.2822045      3.2122592

 **********************************************************************

[...]
 ! D10   D(5,1,4,12)          -142.9196         -DE/DX =    0.0                 !
 ! D11   D(10,1,4,3)           -58.7521         -DE/DX =    0.0                 !
 ! D12   D(10,1,4,6)           142.9143         -DE/DX =    0.0                 !
 ! D13   D(10,1,4,12)            0.0085         -DE/DX =    0.0                 !
 ! D14   D(4,1,10,11)         -138.3447         -DE/DX =    0.0                 !
 ! D15   D(4,1,10,12)           -0.0085         -DE/DX =    0.0                 !
 ! D16   D(5,1,10,11)            0.0068         -DE/DX =    0.0                 !
 ! D17   D(5,1,10,12)          138.3431         -DE/DX =    0.0                 !
 ! D18   D(1,2,7,3)            -32.1012         -DE/DX =    0.0                 !
 ! D19   D(1,2,7,8)           -151.4203         -DE/DX =    0.0                 !
 ! D20   D(1,2,7,9)             87.2174         -DE/DX =    0.0                 !
 ! D21   D(10,2,7,3)            32.1021         -DE/DX =    0.0                 !
 ! D22   D(10,2,7,8)           -87.2171         -DE/DX =    0.0                 !
 ! D23   D(10,2,7,9)           151.4206         -DE/DX =    0.0                 !
 ! D24   D(14,2,7,3)           180.0031         -DE/DX =    0.0                 !
 ! D25   D(14,2,7,8)            60.6839         -DE/DX =    0.0                 !
 ! D26   D(14,2,7,9)           -60.6784         -DE/DX =    0.0                 !
 ! D27   D(7,2,10,11)          136.8624         -DE/DX =    0.0                 !
 ! D28   D(7,2,10,12)          -20.7204         -DE/DX =    0.0                 !
 ! D29   D(14,2,10,11)          -9.8633         -DE/DX =    0.0                 !
 ! D30   D(14,2,10,12)        -167.4461         -DE/DX =    0.0                 !
 ! D31   D(7,3,4,1)            -20.7204         -DE/DX =    0.0                 !
 ! D32   D(7,3,4,6)            136.8624         -DE/DX =    0.0                 !
 ! D33   D(15,3,4,1)          -167.4461         -DE/DX =    0.0                 !
 ! D34   D(15,3,4,6)            -9.8633         -DE/DX =    0.0                 !
 ! D35   D(4,3,7,2)             32.1021         -DE/DX =    0.0                 !
 ! D36   D(4,3,7,8)            151.4206         -DE/DX =    0.0                 !
 ! D37   D(4,3,7,9)            -87.2171         -DE/DX =    0.0                 !
 ! D38   D(12,3,7,2)           -32.1012         -DE/DX =    0.0                 !
 ! D39   D(12,3,7,8)            87.2174         -DE/DX =    0.0                 !
 ! D40   D(12,3,7,9)          -151.4203         -DE/DX =    0.0                 !
 ! D41   D(15,3,7,2)           180.0031         -DE/DX =    0.0                 !
 ! D42   D(15,3,7,8)           -60.6784         -DE/DX =    0.0                 !
 ! D43   D(15,3,7,9)            60.6839         -DE/DX =    0.0                 !
 ! D44   D(7,3,12,10)           20.7168         -DE/DX =    0.0                 !
 ! D45   D(7,3,12,13)         -136.8496         -DE/DX =    0.0                 !
 ! D46   D(15,3,12,10)         167.4387         -DE/DX =    0.0                 !
 ! D47   D(15,3,12,13)           9.8723         -DE/DX =    0.0                 !
 ! D48   D(1,4,12,10)           -0.0085         -DE/DX =    0.0                 !
 ! D49   D(1,4,12,13)          138.3431         -DE/DX =    0.0                 !
 ! D50   D(6,4,12,10)         -138.3447         -DE/DX =    0.0                 !
 ! D51   D(6,4,12,13)            0.0068         -DE/DX =    0.0                 !
 ! D52   D(1,10,12,3)           58.7628         -DE/DX =    0.0                 !
 ! D53   D(1,10,12,4)            0.0085         -DE/DX =    0.0                 !
 ! D54   D(1,10,12,13)        -142.9196         -DE/DX =    0.0                 !
 ! D55   D(2,10,12,3)            0.0022         -DE/DX =    0.0                 !
 ! D56   D(2,10,12,4)          -58.7521         -DE/DX =    0.0                 !
 ! D57   D(2,10,12,13)         158.3198         -DE/DX =    0.0                 !
 ! D58   D(11,10,12,3)        -158.3314         -DE/DX =    0.0                 !
 ! D59   D(11,10,12,4)         142.9143         -DE/DX =    0.0                 !
 ! D60   D(11,10,12,13)         -0.0137         -DE/DX =    0.0                 !
 --------------------------------------------------------------------------------
 GradGradGradGradGradGradGradGradGradGradGradGradGradGradGradGradGradGrad

 1\1\GINC-D12S4B2\Freq\RPM6\ZDO\C7H8\CHMKSH\08-Sep-2020\0\\#N Geom=AllC
 heck Guess=TCheck SCRF=Check GenChk RPM6/ZDO Freq\\Title Card Required
 \\0,1\C,0.0002007808,-1.093622586,-0.7163713158\C,0.8280904009,-0.8304
 361569,0.5563715249\C,-0.8280904009,0.8304361569,0.5563715249\C,-1.093
 5962194,0.0033091065,-0.716256915\H,-0.076137861,-2.0156314694,-1.2492
 036946\H,-2.0158351719,-0.0702807042,-1.2492161453\C,0.,0.,1.541261285
 \H,0.628911825,0.6271216231,2.1926140917\H,-0.628911825,-0.6271216231,
 2.1926140917\C,1.0935962194,-0.0033091065,-0.716256915\H,2.0158351719,
 0.0702807042,-1.2492161453\C,-0.0002007808,1.093622586,-0.7163713158\H
 ,0.076137861,2.0156314694,-1.2492036946\H,1.5418251564,-1.546264982,0.
 9394078116\H,-1.5418251564,1.546264982,0.9394078116\\Version=ES64L-G09
 RevD.01\State=1-A\HF=0.1171027\RMSD=8.007e-10\RMSF=1.169e-04\ZeroPoint
 =0.1205119\Thermal=0.1251714\Dipole=0.,0.,0.1363755\DipoleDeriv=-0.214
 1181,-0.0832813,-0.096321,-0.1176533,-0.2516356,-0.1753299,-0.1026469,
 -0.2484067,-0.172485,-0.1012631,0.2290745,-0.1292088,0.2290904,-0.1025
 74,0.1297182,-0.0895642,0.0897452,-0.0745986,-0.1012631,0.2290745,0.12
 92088,0.2290904,-0.102574,-0.1297182,0.0895642,-0.0897452,-0.0745986,-
 0.2517617,-0.1171325,-0.1754703,-0.0828182,-0.2131498,-0.0956318,-0.24
 89159,-0.1020633,-0.1721656,0.0815407,0.0269674,0.0011179,0.0483346,0.
 2820172,0.1113225,0.0011071,0.1016245,0.1709501,0.2821842,0.0477306,0.
 1113256,0.0263892,0.0813289,0.0008089,0.1016433,0.000816,0.1709156,-0.
 3448914,-0.1375794,0.,-0.1375222,-0.3440876,0.,0.,0.,-0.5277143,0.1727
 55,0.042707,0.0437824,0.0427114,0.1725109,0.0436626,0.017402,0.0173608
 ,0.2132941,0.172755,0.042707,-0.0437824,0.0427114,0.1725109,-0.0436626
 ,-0.017402,-0.0173608,0.2132941,-0.2517617,-0.1171325,0.1754703,-0.082
 8182,-0.2131498,0.0956318,0.2489159,0.1020633,-0.1721656,0.2821842,0.0
 477306,-0.1113256,0.0263892,0.0813289,-0.0008089,-0.1016433,-0.000816,
 0.1709156,-0.2141181,-0.0832813,0.096321,-0.1176533,-0.2516356,0.17532
 99,0.1026469,0.2484067,-0.172485,0.0815407,0.0269674,-0.0011179,0.0483
 346,0.2820172,-0.1113225,-0.0011071,-0.1016245,0.1709501,0.2031054,-0.
 0772692,0.0694919,-0.0772861,0.2035428,-0.0697411,0.0594349,-0.0596123
 ,0.1279375,0.2031054,-0.0772692,-0.0694919,-0.0772861,0.2035428,0.0697
 411,-0.0594349,0.0596123,0.1279375\Polar=54.7842713,4.1989898,54.75912
 27,0.,0.,59.6131812\HyperPolar=0.,0.,0.,0.,9.6817345,14.1191464,9.5933
 435,0.,0.,-13.6430961\PG=C02 [C2(C1),X(C6H8)]\NImag=0\\0.37891384,0.02
 954650,0.56590758,0.08950396,0.16377050,0.33518086,-0.07834480,-0.0189
 4089,-0.05622703,0.39306641,0.01160051,-0.03625113,-0.00349544,-0.1682
 7751,0.39406539,-0.11107859,-0.07002396,-0.15239348,0.05020110,-0.0504
 4192,0.53843564,0.00016821,0.00902147,0.01380588,-0.02524310,0.0317803
 4,-0.00203637,0.39306641,0.01653967,-0.02580552,-0.02629175,0.03178034
 ,-0.02542357,0.00204153,-0.16827751,0.39406539,0.01225341,-0.01775917,
 -0.00516927,0.00203637,-0.00204153,0.00968419,-0.05020110,0.05044192,0
 .53843564,-0.10872945,0.08939773,0.00209656,-0.02573792,0.00909470,-0.
 01772604,-0.03627283,-0.01906933,-0.07035835,0.56603631,0.05769219,-0.
 10915782,-0.01020816,0.01661710,0.00009397,0.01230531,0.01146659,-0.07
 836260,-0.11095072,0.02900193,0.37881638,-0.01019152,0.00211328,-0.055
 39466,-0.02625434,0.01388152,-0.00516826,-0.00367952,-0.05628745,-0.15
 248414,0.16400738,0.08909203,0.33530358,-0.03601352,-0.01149900,-0.006
 03562,-0.00147424,-0.00679902,-0.00819969,-0.00092461,0.00132820,-0.00
 013763,-0.00074329,0.01715650,0.00849180,0.04186145,-0.01148550,-0.179
 38676,-0.08499139,-0.00429263,-0.00136938,-0.00519903,0.00018326,-0.00
 067314,0.00051408,0.00707227,-0.01855486,-0.00807818,0.01436957,0.2160
 1894,-0.00568913,-0.08522836,-0.08093372,-0.00608650,-0.01939467,-0.01
 591670,-0.00036450,0.00023974,-0.00050349,0.00079682,-0.00344117,0.001
 78188,0.01410283,0.10558472,0.09203158,-0.01848382,0.00712250,-0.00805
 207,-0.00066860,0.00018272,0.00051376,-0.00140169,-0.00429301,-0.00522
 421,-0.17941289,-0.01105256,-0.08499594,0.00009604,0.00043949,0.000098
 04,0.21606405,0.01720753,-0.00081252,0.00851367,0.00132742,-0.00092862
 ,-0.00013883,-0.00679793,-0.00144063,-0.00818562,-0.01106878,-0.035957
 75,-0.00578324,0.00034654,0.00009378,0.00009635,0.01385272,0.04178877,
 -0.00343811,0.00080502,0.00178367,0.00023927,-0.00036518,-0.00050336,-
 0.01941382,-0.00603137,-0.01591899,-0.08523311,-0.00543637,-0.08095327
 ,0.00009663,0.00009789,0.00028177,0.10561307,0.01379148,0.09205052,0.0
 0749368,-0.00526101,-0.00434607,-0.09867828,0.04151495,0.04385305,-0.0
 9867828,0.04151495,-0.04385305,-0.00686450,0.00236280,-0.02188620,-0.0
 0049311,0.00072209,-0.00138987,0.00067529,-0.00013798,-0.00113274,0.40
 747704,0.00232704,-0.00685155,-0.02187627,0.04151635,-0.09891360,-0.04
 397680,0.04151635,-0.09891360,0.04397680,-0.00522736,0.00749102,-0.004
 27334,-0.00013432,0.00067347,-0.00112878,0.00071863,-0.00049512,-0.001
 38658,0.00726365,0.40744854,0.00055898,-0.01574164,-0.03227352,0.05541
 331,-0.05556887,-0.10792299,-0.05541331,0.05556887,-0.10792299,-0.0157
 3774,0.00061485,-0.03229084,-0.00000010,0.00096572,-0.00091845,0.00096
 569,-0.00000300,-0.00091870,0.,0.,0.52765415,-0.00072132,0.00125594,0.
 00185546,0.00747549,0.00670551,0.00662191,-0.01426114,-0.00357594,-0.0
 1885702,-0.00084613,0.00093527,-0.00126421,0.00004779,-0.00024602,0.00
 019392,0.00000636,-0.00008036,-0.00019733,-0.09360714,-0.05869836,-0.0
 6168106,0.11229803,0.00093515,-0.00085178,-0.00126926,-0.00363612,-0.0
 1426849,-0.01887637,0.00676467,0.00746618,0.00667547,0.00125619,-0.000
 72778,0.00185897,-0.00008044,0.00000723,-0.00019785,-0.00024591,0.0000
 4875,0.00019455,-0.05869802,-0.09327306,-0.06150444,0.06838850,0.11190
 870,0.00048668,-0.00077716,-0.00127213,-0.00269628,-0.01883123,-0.0176
 0087,-0.01883575,-0.00264089,-0.01759968,-0.00077634,0.00048830,-0.001
 27213,-0.00005801,-0.00003785,-0.00022536,-0.00003801,-0.00005791,-0.0
 0022539,-0.06006903,-0.05989745,-0.09353395,0.07779900,0.07757638,0.12
 470717,0.00042532,-0.00046275,-0.00036503,-0.01426114,-0.00357594,0.01
 885702,0.00747549,0.00670551,-0.00662191,0.00027820,-0.00006168,0.0005
 5066,-0.00000952,0.00011676,-0.00006023,0.00005977,0.00004058,0.000092
 82,-0.09360714,-0.05869836,0.06168106,-0.01076429,-0.01471182,0.004501
 15,0.11229803,-0.00006183,0.00027888,0.00055139,0.00676467,0.00746618,
 -0.00667547,-0.00363612,-0.01426849,0.01887637,-0.00046210,0.00042636,
 -0.00036668,0.00004081,0.00005930,0.00009300,0.00011664,-0.00001002,-0
 .00006052,-0.05869802,-0.09327306,0.06150444,-0.01471182,-0.01068048,0
 .00448824,0.06838850,0.11190870,0.00000421,0.00044788,0.00005871,0.018
 83575,0.00264089,-0.01759968,0.00269628,0.01883123,-0.01760087,0.00044
 705,0.00000004,0.00006135,-0.00002576,-0.00020560,0.00011629,-0.000205
 61,-0.00002518,0.00011630,0.06006903,0.05989745,-0.09353395,-0.0045011
 5,-0.00448824,0.00647089,-0.07779900,-0.07757638,0.12470717,-0.1192810
 4,-0.10516528,-0.02261057,-0.03627283,-0.01906933,0.07035835,-0.025737
 92,0.00909470,0.01772604,-0.08952184,0.00128368,0.00948850,-0.00261042
 ,-0.00589477,-0.00157162,-0.00160933,-0.00003565,0.00038946,-0.0068645
 0,-0.00522736,0.01573774,0.00027820,-0.00046210,-0.00044705,-0.0008461
 3,0.00125619,0.00077634,0.56603631,-0.10692455,-0.11867882,-0.04153054
 ,0.01146659,-0.07836260,0.11095072,0.01661710,0.00009397,-0.01230531,0
 .00128368,0.00334356,-0.00367306,-0.01474186,-0.01563333,0.00302071,-0
 .00041405,-0.00006640,0.00032122,0.00236280,0.00749102,-0.00061485,-0.
 00006168,0.00042636,-0.00000004,0.00093527,-0.00072778,-0.00048830,0.0
 2900193,0.37881638,0.04158523,0.02248005,-0.01247749,0.00367952,0.0562
 8745,-0.15248414,0.02625434,-0.01388152,-0.00516826,-0.00948850,0.0036
 7306,0.01171138,-0.00742203,-0.00815095,0.00343854,-0.00067348,-0.0005
 6812,0.00044408,0.02188620,0.00427334,-0.03229084,-0.00055066,0.000366
 68,0.00006135,0.00126421,-0.00185897,-0.00127213,-0.16400738,-0.089092
 03,0.33530358,-0.01569579,-0.00585985,0.00817250,-0.00140169,-0.004293
 01,0.00522421,-0.00066860,0.00018272,-0.00051376,-0.00160933,-0.000414
 05,0.00067348,0.00012574,-0.00024355,-0.00043980,-0.00019623,0.0000067
 3,-0.00011095,0.00067529,0.00071863,-0.00096569,0.00005977,0.00011664,
 0.00020561,0.00000636,-0.00024591,0.00003801,-0.17941289,-0.01105256,0
 .08499594,0.21606405,-0.01470696,-0.00255290,0.00739695,-0.00679793,-0
 .00144063,0.00818562,0.00132742,-0.00092862,0.00013883,-0.00003565,-0.
 00006640,0.00056812,-0.00011443,0.00012679,0.00009001,0.00000673,0.000
 03436,-0.00009184,-0.00013798,-0.00049512,0.00000300,0.00004058,-0.000
 01002,0.00002518,-0.00008036,0.00004875,0.00005791,-0.01106878,-0.0359
 5775,0.00578324,0.01385272,0.04178877,-0.00301772,0.00157766,0.0034403
 2,0.01941382,0.00603137,-0.01591899,-0.00023927,0.00036518,-0.00050336
 ,-0.00038946,-0.00032122,0.00044408,-0.00008876,0.00044006,0.00048110,
 0.00011095,0.00009184,0.00007909,0.00113274,0.00138658,-0.00091870,-0.
 00009282,0.00006052,0.00011630,0.00019733,-0.00019455,-0.00022539,0.08
 523311,0.00543637,-0.08095327,-0.10561307,-0.01379148,0.09205052,0.003
 34701,0.00101761,-0.00364512,0.00016821,0.01653967,-0.01225341,-0.0783
 4480,0.01160051,0.11107859,-0.11928104,-0.10692455,-0.04158523,-0.0000
 6764,-0.00041742,0.00032300,-0.01569579,-0.01470696,0.00301772,0.00749
 368,0.00232704,-0.00055898,0.00042532,-0.00006183,-0.00000421,-0.00072
 132,0.00093515,-0.00048668,-0.10872945,0.05769219,0.01019152,-0.018483
 82,0.01720753,0.00343811,0.37891384,0.00101761,-0.08952509,0.00949442,
 0.00902147,-0.02580552,0.01775917,-0.01894089,-0.03625113,0.07002396,-
 0.10516528,-0.11867882,-0.02248005,-0.00004003,-0.00160745,0.00038939,
 -0.00585985,-0.00255290,-0.00157766,-0.00526101,-0.00685155,0.01574164
 ,-0.00046275,0.00027888,-0.00044788,0.00125594,-0.00085178,0.00077716,
 0.08939773,-0.10915782,-0.00211328,0.00712250,-0.00081252,-0.00080502,
 0.02954650,0.56590758,0.00364512,-0.00949442,0.01170545,-0.01380588,0.
 02629175,-0.00516927,0.05622703,0.00349544,-0.15239348,0.02261057,0.04
 153054,-0.01247749,-0.00057022,-0.00067142,0.00044471,-0.00817250,-0.0
 0739695,0.00344032,0.00434607,0.02187627,-0.03227352,0.00036503,-0.000
 55139,0.00005871,-0.00185546,0.00126926,-0.00127213,-0.00209656,0.0102
 0816,-0.05539466,0.00805207,-0.00851367,0.00178367,-0.08950396,-0.1637
 7050,0.33518086,-0.00006764,-0.00004003,0.00057022,-0.00092461,0.00132
 820,0.00013763,-0.00147424,-0.00679902,0.00819969,-0.00261042,-0.01474
 186,0.00742203,0.00003430,0.00000610,-0.00009220,0.00012574,-0.0001144
 3,0.00008876,-0.00049311,-0.00013432,0.00000010,-0.00000952,0.00004081
 ,0.00002576,0.00004779,-0.00008044,0.00005801,-0.00074329,0.01715650,-
 0.00849180,0.00009604,0.00034654,-0.00009663,-0.03601352,-0.01149900,0
 .00603562,0.04186145,-0.00041742,-0.00160745,0.00067142,0.00018326,-0.
 00067314,-0.00051408,-0.00429263,-0.00136938,0.00519903,-0.00589477,-0
 .01563333,0.00815095,0.00000610,-0.00019634,-0.00011071,-0.00024355,0.
 00012679,-0.00044006,0.00072209,0.00067347,-0.00096572,0.00011676,0.00
 005930,0.00020560,-0.00024602,0.00000723,0.00003785,0.00707227,-0.0185
 5486,0.00807818,0.00043949,0.00009378,-0.00009789,-0.01148550,-0.17938
 676,0.08499139,0.01436957,0.21601894,-0.00032300,-0.00038939,0.0004447
 1,0.00036450,-0.00023974,-0.00050349,0.00608650,0.01939467,-0.01591670
 ,0.00157162,-0.00302071,0.00343854,0.00009220,0.00011071,0.00007906,0.
 00043980,-0.00009001,0.00048110,0.00138987,0.00112878,-0.00091845,0.00
 006023,-0.00009300,0.00011629,-0.00019392,0.00019785,-0.00022536,-0.00
 079682,0.00344117,0.00178188,-0.00009804,-0.00009635,0.00028177,0.0056
 8913,0.08522836,-0.08093372,-0.01410283,-0.10558472,0.09203158,-0.0133
 6888,0.01007074,-0.01307546,-0.11679033,0.08277614,-0.04400830,-0.0009
 1240,0.00049289,0.00046415,-0.00031701,0.00040510,-0.00127891,-0.00010
 304,-0.00037655,0.00008469,-0.00014489,0.00015108,-0.00009894,-0.01226
 458,0.01586601,0.00160511,0.00001653,0.00030183,0.00025191,-0.00039790
 ,0.00009235,0.00034541,0.00563158,-0.00372723,-0.00050241,0.00058627,0
 .00000959,-0.00008762,0.00035842,-0.00020308,0.00164789,0.00027407,0.0
 0004667,-0.00009446,0.13752928,-0.00367452,0.00561150,0.00053933,0.082
 77606,-0.11727323,0.04413815,0.00049260,-0.00091546,-0.00046545,-0.000
 20047,0.00035822,-0.00164448,0.00001155,0.00058752,0.00008721,0.000047
 89,0.00027346,0.00009480,0.01586517,-0.01235554,-0.00160990,0.00009134
 ,-0.00039912,-0.00034615,0.00030295,0.00001540,-0.00025290,0.01001781,
 -0.01338993,0.01307865,-0.00037862,-0.00010196,-0.00008454,0.00040382,
 -0.00031715,0.00127451,0.00014995,-0.00014547,0.00009923,-0.10613536,0
 .13815018,-0.01470316,0.00852545,-0.01124032,-0.04360948,0.04373744,-0
 .05592307,0.00150455,-0.00150856,-0.00101534,-0.00030548,0.00040423,-0
 .00145908,-0.00033930,-0.00025918,-0.00015313,-0.00011927,0.00009393,-
 0.00000407,0.01100954,-0.01104096,0.00403085,0.00031250,-0.00006467,0.
 00009951,0.00006379,-0.00031267,0.00009949,-0.00848442,0.01473017,-0.0
 1124086,0.00026020,0.00033850,-0.00015309,-0.00040347,0.00030638,-0.00
 145905,-0.00009359,0.00011955,-0.00000409,0.05482734,-0.05498911,0.078
 09150,0.00035842,-0.00020308,-0.00164789,-0.00091240,0.00049289,-0.000
 46415,-0.11679033,0.08277614,0.04400830,0.00563158,-0.00372723,0.00050
 241,0.00027407,0.00004667,0.00009446,0.00058627,0.00000959,0.00008762,
 -0.01226458,0.01586601,-0.00160511,-0.00039790,0.00009235,-0.00034541,
 0.00001653,0.00030183,-0.00025191,-0.00031701,0.00040510,0.00127891,-0
 .00014489,0.00015108,0.00009894,-0.01336888,0.01007074,0.01307546,-0.0
 0010304,-0.00037655,-0.00008469,-0.00009717,0.00022958,0.00008036,0.13
 752928,0.00040382,-0.00031715,-0.00127451,0.00049260,-0.00091546,0.000
 46545,0.08277606,-0.11727323,-0.04413815,0.01001781,-0.01338993,-0.013
 07865,0.00014995,-0.00014547,-0.00009923,-0.00037862,-0.00010196,0.000
 08454,0.01586517,-0.01235554,0.00160990,0.00030295,0.00001540,0.000252
 90,0.00009134,-0.00039912,0.00034615,-0.00020047,0.00035822,0.00164448
 ,0.00004789,0.00027346,-0.00009480,-0.00367452,0.00561150,-0.00053933,
 0.00001155,0.00058752,-0.00008721,0.00022958,-0.00009844,-0.00008062,-
 0.10613536,0.13815018,0.00040347,-0.00030638,-0.00145905,-0.00150455,0
 .00150856,-0.00101534,0.04360948,-0.04373744,-0.05592307,0.00848442,-0
 .01473017,-0.01124086,0.00009359,-0.00011955,-0.00000409,-0.00026020,-
 0.00033850,-0.00015309,-0.01100954,0.01104096,0.00403085,-0.00006379,0
 .00031267,0.00009949,-0.00031250,0.00006467,0.00009951,0.00030548,-0.0
 0040423,-0.00145908,0.00011927,-0.00009393,-0.00000407,0.01470316,-0.0
 0852545,-0.01124032,0.00033930,0.00025918,-0.00015313,-0.00008036,0.00
 008062,0.00033079,-0.05482734,0.05498911,0.07809150\\0.00011965,-0.000
 18224,-0.00011666,0.00015237,-0.00013439,-0.00003032,-0.00015237,0.000
 13439,-0.00003032,-0.00013907,0.00011161,-0.00001797,-0.00005683,0.000
 06406,0.00002671,0.00004421,-0.00004913,0.00000715,0.,0.,0.00052308,0.
 00004292,0.00004294,-0.00013568,-0.00004292,-0.00004294,-0.00013568,0.
 00013907,-0.00011161,-0.00001797,-0.00004421,0.00004913,0.00000715,-0.
 00011965,0.00018224,-0.00011666,0.00005683,-0.00006406,0.00002671,-0.0
 0002081,0.00001849,0.00000523,0.00002081,-0.00001849,0.00000523\\\@


 IT CANNOT BE MY BEAUTY, FOR I HAVE NONE; AND IT CANNOT BE MY WIT,
 FOR HE HAS NOT ENOUGH TO KNOW THAT I HAVE ANY.
 -- CATHARINE SEDLEY, PUZZLED ABOUT WHY SHE WAS MISTRESS TO JAMES II
 Job cpu time:       0 days  0 hours  0 minutes  8.2 seconds.
 File lengths (MBytes):  RWF=     26 Int=      0 D2E=      0 Chk=      7 Scr=      1
 Normal termination of Gaussian 09 at Tue Sep  8 22:38:52 2020.
