 Entering Gaussian System, Link 0=g09
 Input=freq_TS_2H2O_claisen_PM6_toluene.com
 Output=freq_TS_2H2O_claisen_PM6_toluene.log
 Initial command:
 /apps/applications/gaussian/G09.D01/2/default/g09/l1.exe "/local/707217.1.40core-192G.q/Gau-173229.inp" -scrdir="/local/707217.1.40core-192G.q/"
 Entering Link 1 = /apps/applications/gaussian/G09.D01/2/default/g09/l1.exe PID=    173230.
  
 Copyright (c) 1988,1990,1992,1993,1995,1998,2003,2009,2013,
            Gaussian, Inc.  All Rights Reserved.
  
 This is part of the Gaussian(R) 09 program.  It is based on
 the Gaussian(R) 03 system (copyright 2003, Gaussian, Inc.),
 the Gaussian(R) 98 system (copyright 1998, Gaussian, Inc.),
 the Gaussian(R) 94 system (copyright 1995, Gaussian, Inc.),
 the Gaussian 92(TM) system (copyright 1992, Gaussian, Inc.),
 the Gaussian 90(TM) system (copyright 1990, Gaussian, Inc.),
 the Gaussian 88(TM) system (copyright 1988, Gaussian, Inc.),
 the Gaussian 86(TM) system (copyright 1986, Carnegie Mellon
 University), and the Gaussian 82(TM) system (copyright 1983,
 Carnegie Mellon University). Gaussian is a federally registered
 trademark of Gaussian, Inc.
  
 This software contains proprietary and confidential information,
 including trade secrets, belonging to Gaussian, Inc.
  
 This software is provided under written license and may be
 used, copied, transmitted, or stored only in accord with that
 written license.
  
 The following legend is applicable only to US Government
 contracts under FAR:
  
                    RESTRICTED RIGHTS LEGEND
  
 Use, reproduction and disclosure by the US Government is
 subject to restrictions as set forth in subparagraphs (a)
 and (c) of the Commercial Computer Software - Restricted
 Rights clause in FAR 52.227-19.
  
 Gaussian, Inc.
 340 Quinnipiac St., Bldg. 40, Wallingford CT 06492
  
  
 ---------------------------------------------------------------
 Warning -- This program may not be used in any manner that
 competes with the business of Gaussian, Inc. or will provide
 assistance to any competitor of Gaussian, Inc.  The licensee
 of this program is prohibited from giving any competitor of
 Gaussian, Inc. access to this program.  By using this program,
 the user acknowledges that Gaussian, Inc. is engaged in the
 business of creating and licensing software in the field of
 computational chemistry and represents and warrants to the
 licensee that it is not a competitor of Gaussian, Inc. and that
 it will not use this program in any manner prohibited above.
 ---------------------------------------------------------------
  

 Cite this work as:
 Gaussian 09, Revision D.01,
 M. J. Frisch, G. W. Trucks, H. B. Schlegel, G. E. Scuseria, 
 M. A. Robb, J. R. Cheeseman, G. Scalmani, V. Barone, B. Mennucci, 
 G. A. Petersson, H. Nakatsuji, M. Caricato, X. Li, H. P. Hratchian, 
 A. F. Izmaylov, J. Bloino, G. Zheng, J. L. Sonnenberg, M. Hada, 
 M. Ehara, K. Toyota, R. Fukuda, J. Hasegawa, M. Ishida, T. Nakajima, 
 Y. Honda, O. Kitao, H. Nakai, T. Vreven, J. A. Montgomery, Jr., 
 J. E. Peralta, F. Ogliaro, M. Bearpark, J. J. Heyd, E. Brothers, 
 K. N. Kudin, V. N. Staroverov, T. Keith, R. Kobayashi, J. Normand, 
 K. Raghavachari, A. Rendell, J. C. Burant, S. S. Iyengar, J. Tomasi, 
 M. Cossi, N. Rega, J. M. Millam, M. Klene, J. E. Knox, J. B. Cross, 
 V. Bakken, C. Adamo, J. Jaramillo, R. Gomperts, R. E. Stratmann, 
 O. Yazyev, A. J. Austin, R. Cammi, C. Pomelli, J. W. Ochterski, 
 R. L. Martin, K. Morokuma, V. G. Zakrzewski, G. A. Voth, 
 P. Salvador, J. J. Dannenberg, S. Dapprich, A. D. Daniels, 
 O. Farkas, J. B. Foresman, J. V. Ortiz, J. Cioslowski, 
 and D. J. Fox, Gaussian, Inc., Wallingford CT, 2013.
 
 ******************************************
 Gaussian 09:  ES64L-G09RevD.01 24-Apr-2013
                20-Aug-2020 
 ******************************************
 %nprocshared=4
 Will use up to    4 processors via shared memory.
 %chk=freq_TS_2H2O_claisen_PM6_toluene.chk
 ----------------------------------------------------------------------
 # freq pm6 scrf=(cpcm,solvent=toluene) geom=connectivity empiricaldisp
 ersion=gd3
 ----------------------------------------------------------------------
 1/10=4,30=1,38=1,57=2/1,3;
 2/12=2,17=6,18=5,40=1/2;
 3/5=2,16=1,25=1,41=3900000,70=2101,71=2,72=13,124=31,140=1/1,2,3;
 4/35=1/1;
 5/5=2,35=1,38=5,53=13,98=1/2;
 8/6=4,10=90,11=11/1;
 11/6=1,8=1,9=11,15=111,16=1/1,2,10;
 10/6=1/2;
 6/7=2,8=2,9=2,10=2,18=1,28=1/1;
 7/8=1,10=1,25=1/1,2,3,16;
 1/10=4,30=1/3;
 99//99;
 -------------------
 Title Card Required
 -------------------
 Symbolic Z-matrix:
 Charge =  0 Multiplicity = 1
 C                    -2.44137   2.79889   0.58472 
 C                    -2.91015   1.52307   0.32377 
 C                    -2.00806   0.49082  -0.03689 
 C                    -0.62621   0.78216  -0.11578 
 C                    -0.17055   2.09706   0.1419 
 C                    -1.06266   3.09277   0.49088 
 H                    -3.13697   3.59269   0.86243 
 H                    -3.97894   1.31733   0.394 
 H                     0.90362   2.3059    0.05536 
 H                    -0.71416   4.10566   0.69205 
 C                     0.32268  -0.27344  -0.49013 
 C                    -2.43347  -0.85932  -0.34474 
 C                    -0.1498   -1.58903  -0.74581 
 H                     0.47037  -2.26507  -1.34004 
 C                    -1.56852  -1.83885  -0.71864 
 H                    -1.91537  -2.83974  -0.98526 
 O                     1.58759  -0.03406  -0.45934 
 Cl                   -4.11982  -1.22186  -0.25505 
 C                     2.46468  -0.85135   1.10124 
 C                     1.92305  -2.13811   0.88249 
 H                     2.56239  -2.87373   0.38748 
 C                     3.86785  -0.56957   0.68138 
 H                     3.97874   0.46678   0.29763 
 H                     4.56778  -0.65762   1.5269 
 H                     4.23382  -1.23558  -0.11152 
 C                     1.90206   0.07433   2.13086 
 H                     0.80237   0.09158   2.15697 
 H                     2.23634  -0.22434   3.13829 
 H                     2.22594   1.11667   1.98742 
 C                     0.57487  -2.42571   1.02196 
 H                     0.20284  -3.43      0.82698 
 H                    -0.07845  -1.83938   1.66638 
 O                     3.11204   2.15916  -0.76238 
 H                     2.30867   1.6991   -0.43845 
 H                     3.36802   1.66354  -1.56791 
 O                     2.93054   0.12823  -2.53725 
 H                     2.03551   0.3625   -2.79634 
 H                     2.81669  -0.49351  -1.78798 
 

 GradGradGradGradGradGradGradGradGradGradGradGradGradGradGradGradGradGrad
 Berny optimization.
 Initialization pass.
 Trust Radius=3.00D-01 FncErr=1.00D-07 GrdErr=1.00D-07
 Number of steps in this run=      2 maximum allowed number of steps=      2.
 GradGradGradGradGradGradGradGradGradGradGradGradGradGradGradGradGradGrad

                          Input orientation:                          
 ---------------------------------------------------------------------
 Center     Atomic      Atomic             Coordinates (Angstroms)
 Number     Number       Type             X           Y           Z
 ---------------------------------------------------------------------
      1          6           0       -2.441371    2.798886    0.584719
      2          6           0       -2.910152    1.523071    0.323767
      3          6           0       -2.008059    0.490815   -0.036888
      4          6           0       -0.626208    0.782161   -0.115778
      5          6           0       -0.170548    2.097057    0.141899
      6          6           0       -1.062659    3.092768    0.490879
      7          1           0       -3.136966    3.592692    0.862430
      8          1           0       -3.978943    1.317334    0.394002
      9          1           0        0.903617    2.305898    0.055363
     10          1           0       -0.714164    4.105662    0.692049
     11          6           0        0.322677   -0.273439   -0.490133
     12          6           0       -2.433472   -0.859320   -0.344738
     13          6           0       -0.149800   -1.589034   -0.745814
     14          1           0        0.470368   -2.265067   -1.340035
     15          6           0       -1.568519   -1.838845   -0.718639
     16          1           0       -1.915373   -2.839744   -0.985258
     17          8           0        1.587590   -0.034063   -0.459337
     18         17           0       -4.119822   -1.221864   -0.255051
     19          6           0        2.464682   -0.851354    1.101241
     20          6           0        1.923051   -2.138109    0.882486
     21          1           0        2.562394   -2.873732    0.387475
     22          6           0        3.867850   -0.569570    0.681379
     23          1           0        3.978742    0.466783    0.297632
     24          1           0        4.567781   -0.657623    1.526898
     25          1           0        4.233823   -1.235576   -0.111518
     26          6           0        1.902061    0.074332    2.130858
     27          1           0        0.802372    0.091584    2.156968
     28          1           0        2.236343   -0.224338    3.138289
     29          1           0        2.225944    1.116672    1.987424
     30          6           0        0.574867   -2.425710    1.021961
     31          1           0        0.202843   -3.430002    0.826976
     32          1           0       -0.078445   -1.839377    1.666380
     33          8           0        3.112040    2.159163   -0.762376
     34          1           0        2.308668    1.699100   -0.438447
     35          1           0        3.368020    1.663543   -1.567911
     36          8           0        2.930539    0.128230   -2.537251
     37          1           0        2.035510    0.362502   -2.796344
     38          1           0        2.816685   -0.493513   -1.787984
 ---------------------------------------------------------------------
                    Distance matrix (angstroms):
                    1          2          3          4          5
     1  C    0.000000
     2  C    1.384036   0.000000
     3  C    2.429269   1.417532   0.000000
     4  C    2.802266   2.441014   1.414432   0.000000
     5  C    2.417704   2.804989   2.447126   1.415265   0.000000
     6  C    1.412805   2.430042   2.818240   2.428462   1.381698
     7  H    1.091377   2.150566   3.421234   3.893569   3.399371
     8  H    2.143711   1.090676   2.180180   3.433237   3.895561
     9  H    3.422309   3.902524   3.432331   2.165971   1.097695
    10  H    2.168508   3.409952   3.908022   3.421400   2.152366
    11  C    4.270181   3.786960   2.494363   1.467929   2.502396
    12  C    3.774444   2.519903   1.448659   2.452159   3.754704
    13  C    5.125959   4.295200   2.877755   2.499295   3.791534
    14  H    6.150327   5.342859   3.928827   3.462208   4.651347
    15  C    4.895831   3.766838   2.466839   2.849748   4.264525
    16  H    5.876704   4.662326   3.464191   3.941591   5.356015
    17  O    5.034698   4.823650   3.658231   2.384357   2.827403
    18  Cl   4.437211   3.054996   2.727711   4.029994   5.173932
    19  C    6.136807   5.927158   4.806471   3.701771   4.069140
    20  C    6.596269   6.089028   4.817688   4.002903   4.782077
    21  H    7.566714   7.020306   5.691160   4.877089   5.677854
    22  C    7.152769   7.102700   6.013870   4.760167   4.869353
    23  H    6.836591   6.969454   5.996188   4.634214   4.460791
    24  H    7.871681   7.881779   6.856093   5.634615   5.653162
    25  H    7.830699   7.670462   6.476657   5.262241   5.528937
    26  C    5.355291   5.340582   4.490169   3.455509   3.513272
    27  H    4.508139   4.380938   3.587605   2.771843   3.004829
    28  H    6.127121   6.120570   5.348658   4.449291   4.490028
    29  H    5.155701   5.414092   4.734587   3.559512   3.179668
    30  C    6.048576   5.312787   4.037175   3.609358   4.667502
    31  H    6.771233   5.871702   4.583356   4.395273   5.581857
    32  H    5.316662   4.596437   3.471934   3.216923   4.222326
    33  O    5.750155   6.152326   5.433703   4.035929   3.405430
    34  H    4.981894   5.277124   4.500593   3.091665   2.577146
    35  H    6.298559   6.558477   5.711528   4.340436   3.953840
    36  O    6.762878   6.651667   5.547345   4.352196   4.546522
    37  H    6.116373   5.961676   4.897092   3.800828   4.063083
    38  H    6.642045   6.428279   5.226222   4.034492   4.399893
                    6          7          8          9         10
     6  C    0.000000
     7  H    2.165808   0.000000
     8  H    3.415591   2.470952   0.000000
     9  H    2.162193   4.316655   4.993128   0.000000
    10  H    1.089896   2.482365   4.303764   2.502346   0.000000
    11  C    3.769999   5.361485   4.670780   2.699636   4.652861
    12  C    4.265722   4.666109   2.769845   4.616801   5.355557
    13  C    4.927676   6.193536   4.940495   4.113644   5.900468
    14  H    5.865903   7.223368   5.969661   4.798808   6.791073
    15  C    5.102905   5.870383   4.124267   4.887681   6.169046
    16  H    6.172585   6.803122   4.841692   5.958794   7.245338
    17  O    4.207589   6.100971   5.791438   2.491616   4.874534
    18  Cl   5.340291   5.039317   2.624622   6.146251   6.393594
    19  C    5.326422   7.154372   6.835473   3.674102   5.902924
    20  C    6.035718   7.645015   6.856547   4.633851   6.780549
    21  H    6.982179   8.632666   7.768794   5.448890   7.716252
    22  C    6.144829   8.150132   8.075590   4.176947   6.546202
    23  H    5.687606   7.792535   8.003591   3.591299   5.951502
    24  H    6.844021   8.824388   8.844795   4.937000   7.161341
    25  H    6.866598   8.865059   8.615244   4.864171   7.325102
    26  C    4.537626   6.275314   6.256831   3.206939   5.016615
    27  H    3.906571   5.426967   5.241325   3.054534   4.534169
    28  H    5.375443   6.972926   6.966896   4.205079   5.782602
    29  H    4.118193   6.013077   6.409359   2.625960   4.388199
    30  C    5.780756   7.072787   5.928060   4.840506   6.665528
    31  H    6.652893   7.776491   6.341293   5.829839   7.592453
    32  H    5.164933   6.285560   5.176645   4.554462   6.057801
    33  O    4.457620   6.614006   7.233804   2.359525   4.532554
    34  H    3.764546   5.910406   6.353957   1.608173   4.025801
    35  H    5.090404   7.207150   7.612281   3.020086   5.266459
    36  O    5.822687   7.770132   7.599155   3.946175   6.287464
    37  H    5.278147   7.111629   6.874857   3.631832   5.808687
    38  H    5.753602   7.692056   7.363477   3.859334   6.306336
                   11         12         13         14         15
    11  C    0.000000
    12  C    2.821481   0.000000
    13  C    1.421055   2.430741   0.000000
    14  H    2.170421   3.376245   1.093036   0.000000
    15  C    2.465630   1.359196   1.440801   2.173674   0.000000
    16  H    3.440921   2.144941   2.176892   2.479492   1.092333
    17  O    1.287732   4.106473   2.349155   2.645977   3.644928
    18  Cl   4.548689   1.727211   4.017056   4.830663   2.665469
    19  C    2.730319   5.107135   3.285011   3.454808   4.533631
    20  C    2.814653   4.703262   2.692500   2.658196   3.852820
    21  H    3.542323   5.436237   3.207926   2.780528   4.399877
    22  C    3.745449   6.390894   4.383800   4.301594   5.755451
    23  H    3.812521   6.579337   4.728639   4.738528   6.092687
    24  H    4.715604   7.249914   5.318676   5.252806   6.640173
    25  H    4.045506   6.681974   4.443356   4.090562   5.865126
    26  C    3.079771   5.079087   3.905402   4.423758   4.881066
    27  H    2.714865   4.199219   3.486725   4.230019   4.197237
    28  H    4.102435   5.860192   4.758396   5.228635   5.653274
    29  H    3.419521   5.572583   4.520575   5.058675   5.518678
    30  C    2.642404   3.656713   2.085713   2.369758   2.822800
    31  H    3.422430   3.864127   2.446873   2.474789   2.838737
    32  H    2.695108   3.248270   2.426199   3.085602   2.812230
    33  O    3.711093   6.327588   4.968788   5.185165   6.155779
    34  H    2.799597   5.389080   4.117082   4.461707   5.256248
    35  H    3.766646   6.443470   4.861086   4.886951   6.112070
    36  O    3.339607   5.878349   3.955595   3.635057   5.236245
    37  H    2.942249   5.241662   3.576136   3.387421   4.706571
    38  H    2.820093   5.457190   3.329612   2.973931   4.709929
                   16         17         18         19         20
    16  H    0.000000
    17  O    4.518760   0.000000
    18  Cl   2.830253   5.833280   0.000000
    19  C    5.243287   1.967907   6.732941   0.000000
    20  C    4.325998   2.517942   6.216897   1.413137   0.000000
    21  H    4.683583   3.119464   6.913286   2.146863   1.093132
    22  C    6.432499   2.605300   8.068785   1.491498   2.506592
    23  H    6.878918   2.557627   8.291184   2.162325   3.369478
    24  H    7.287240   3.635312   8.886403   2.154470   3.098661
    25  H    6.414779   2.926971   8.354889   2.179053   2.672504
    26  C    5.724930   2.611465   6.605737   1.494506   2.540427
    27  H    5.084526   2.734485   5.636575   2.183338   2.802099
    28  H    6.409425   3.660601   7.273971   2.143561   2.974780
    29  H    6.452951   2.778188   7.125040   2.171507   3.450541
    30  C    3.225159   2.989954   5.011997   2.460952   1.385557
    31  H    2.849462   3.886454   4.973137   3.441012   2.152019
    32  H    3.377310   3.248616   4.517294   2.786228   2.170188
    33  O    7.093210   2.688126   7.999284   3.599355   4.752453
    34  H    6.224358   1.877297   7.063367   2.983252   4.076486
    35  H    6.966586   2.698283   8.131233   3.776917   4.748151
    36  O    5.890706   2.479431   7.532515   3.796740   4.224444
    37  H    5.398508   2.412364   6.845181   4.104729   4.449662
    38  H    5.342428   1.867370   7.141114   2.932504   3.261087
                   21         22         23         24         25
    21  H    0.000000
    22  C    2.664537   0.000000
    23  H    3.629484   1.110669   0.000000
    24  H    3.198594   1.101163   1.767017   0.000000
    25  H    2.392953   1.098265   1.769321   1.769171   0.000000
    26  C    3.488052   2.525851   2.797738   2.829592   3.490161
    27  H    3.875807   3.465782   3.699626   3.890579   4.322295
    28  H    3.833090   2.969412   3.403371   2.867040   3.946362
    29  H    4.312350   2.691658   2.519931   2.973955   3.737674
    30  C    2.133907   3.795390   4.525211   4.395959   4.011129
    31  H    2.463753   4.651403   5.451839   5.218109   4.684557
    32  H    3.111193   4.260972   4.863395   4.796187   4.703313
    33  O    5.191753   3.178311   2.176911   3.910785   3.634043
    34  H    4.653742   2.971855   2.202173   3.810553   3.524972
    35  H    5.005940   3.208727   2.299014   4.050319   3.357914
    36  O    4.207295   3.424187   3.041366   4.451453   3.072897
    37  H    4.570287   4.039899   3.655094   5.113069   3.820304
    38  H    3.234614   2.684862   2.573391   3.752561   2.317213
                   26         27         28         29         30
    26  C    0.000000
    27  H    1.100134   0.000000
    28  H    1.102663   1.766089   0.000000
    29  H    1.100884   1.762415   1.767175   0.000000
    30  C    3.039952   2.770698   3.476404   4.025748   0.000000
    31  H    4.107044   3.811808   4.444499   5.109973   1.088588
    32  H    2.792924   2.178331   3.183255   3.761848   1.088981
    33  O    3.765816   4.258171   4.654365   3.071377   5.535537
    34  H    3.067006   3.404294   4.061759   2.496180   4.706688
    35  H    4.284334   4.788353   5.195489   3.774098   5.588482
    36  O    4.780368   5.154234   5.728697   4.684672   4.973911
    37  H    4.937425   5.111685   5.966958   4.846594   4.948440
    38  H    4.064026   4.467935   4.967637   4.146731   4.081044
                   31         32         33         34         35
    31  H    0.000000
    32  H    1.820387   0.000000
    33  O    6.498325   5.662718   0.000000
    34  H    5.687133   4.759141   0.980813   0.000000
    35  H    6.457401   5.882959   0.979822   1.548929   0.000000
    36  O    5.605298   5.531363   2.703297   2.694315   1.867671
    37  H    5.556096   5.406753   2.919578   2.724112   2.230995
    38  H    4.721563   4.703803   2.859335   2.624287   2.237251
                   36         37         38
    36  O    0.000000
    37  H    0.960775   0.000000
    38  H    0.980269   1.536159   0.000000
 Stoichiometry    C15H19ClO3
 Framework group  C1[X(C15H19ClO3)]
 Deg. of freedom   108
 Full point group                 C1      NOp   1
 Largest Abelian subgroup         C1      NOp   1
 Largest concise Abelian subgroup C1      NOp   1
                         Standard orientation:                         
 ---------------------------------------------------------------------
 Center     Atomic      Atomic             Coordinates (Angstroms)
 Number     Number       Type             X           Y           Z
 ---------------------------------------------------------------------
      1          6           0        2.441371    2.798886   -0.584719
      2          6           0        2.910152    1.523071   -0.323767
      3          6           0        2.008059    0.490815    0.036888
      4          6           0        0.626208    0.782161    0.115778
      5          6           0        0.170548    2.097057   -0.141899
      6          6           0        1.062659    3.092768   -0.490879
      7          1           0        3.136966    3.592692   -0.862430
      8          1           0        3.978943    1.317334   -0.394002
      9          1           0       -0.903617    2.305898   -0.055363
     10          1           0        0.714164    4.105662   -0.692049
     11          6           0       -0.322677   -0.273439    0.490133
     12          6           0        2.433472   -0.859320    0.344738
     13          6           0        0.149800   -1.589034    0.745814
     14          1           0       -0.470368   -2.265067    1.340035
     15          6           0        1.568519   -1.838845    0.718639
     16          1           0        1.915373   -2.839744    0.985258
     17          8           0       -1.587590   -0.034063    0.459337
     18         17           0        4.119822   -1.221864    0.255051
     19          6           0       -2.464682   -0.851354   -1.101241
     20          6           0       -1.923051   -2.138109   -0.882486
     21          1           0       -2.562394   -2.873732   -0.387475
     22          6           0       -3.867850   -0.569570   -0.681379
     23          1           0       -3.978742    0.466783   -0.297632
     24          1           0       -4.567781   -0.657623   -1.526898
     25          1           0       -4.233823   -1.235576    0.111518
     26          6           0       -1.902061    0.074332   -2.130858
     27          1           0       -0.802372    0.091584   -2.156968
     28          1           0       -2.236343   -0.224338   -3.138289
     29          1           0       -2.225944    1.116672   -1.987424
     30          6           0       -0.574867   -2.425710   -1.021961
     31          1           0       -0.202843   -3.430002   -0.826976
     32          1           0        0.078445   -1.839377   -1.666380
     33          8           0       -3.112040    2.159163    0.762376
     34          1           0       -2.308668    1.699100    0.438447
     35          1           0       -3.368020    1.663543    1.567911
     36          8           0       -2.930539    0.128230    2.537251
     37          1           0       -2.035510    0.362502    2.796344
     38          1           0       -2.816685   -0.493513    1.787984
 ---------------------------------------------------------------------
 Rotational constants (GHZ):      0.4996925      0.2494813      0.2044807
 Standard basis: VSTO-6G (5D, 7F)
 There are   101 symmetry adapted cartesian basis functions of A   symmetry.
 There are   100 symmetry adapted basis functions of A   symmetry.
   100 basis functions,   606 primitive gaussians,   101 cartesian basis functions
    52 alpha electrons       52 beta electrons
       nuclear repulsion energy       864.8745591676 Hartrees.
 Integral buffers will be    131072 words long.
 Regular integral format.
 Two-electron integral symmetry is turned off.
 Nuclear repulsion after empirical dispersion term =      864.8579024157 Hartrees.
 Force inversion solution in PCM.
 ------------------------------------------------------------------------------
 Polarizable Continuum Model (PCM)
 =================================
 Model                : C-PCM.
 Atomic radii         : UFF (Universal Force Field).
 Polarization charges : Total charges.
 Charge compensation  : None.
 Solution method      : Matrix inversion.
 Cavity type          : Scaled VdW (van der Waals Surface) (Alpha=1.100).
 Cavity algorithm     : GePol (No added spheres)
                        Default sphere list used, NSphG=   38.
                        Lebedev-Laikov grids with approx.  5.0 points / Ang**2.
                        Smoothing algorithm: Karplus/York (Gamma=1.0000).
                        Polarization charges: spherical gaussians, with
                                              point-specific exponents (IZeta= 3).
                        Self-potential: point-specific (ISelfS= 7).
                        Self-field    : sphere-specific E.n sum rule (ISelfD= 2).
 1st derivatives      : Analytical E(r).r(x)/FMM algorithm (CHGder, D1EAlg=3).
                        Cavity 1st derivative terms included.
 2nd derivatives      : Analytical E(r).r(xy)/FMM algorithm (CHGder, D2EAlg=3).
                        Cavity 2nd derivative terms included.
 Solvent              : Toluene, Eps=   2.374100 Eps(inf)=   2.238315
 ------------------------------------------------------------------------------
 Do NDO integrals.
 One-electron integrals computed using PRISM.
 PrsmSu:  requested number of processors reduced to:   2 ShMem   1 Linda.
 NBasis=   100 RedAO= F EigKep=  0.00D+00  NBF=   100
 NBsUse=   100 1.00D-04 EigRej=  0.00D+00 NBFU=   100
 Nonelectrostatic core Hamiltonian diagonalized for initial guess.
 Overlap will be assumed to be unity.
 Keep J ints in memory in canonical form, NReq=11258905.
 Requested convergence on RMS density matrix=1.00D-08 within 128 cycles.
 Requested convergence on MAX density matrix=1.00D-06.
 Requested convergence on             energy=1.00D-06.
 No special actions if energy rises.
 Inv3:  Mode=1 IEnd=    19431075.
 Iteration    1 A*A^-1 deviation from unit magnitude is 6.66D-15 for   2510.
 Iteration    1 A*A^-1 deviation from orthogonality  is 2.47D-15 for   1619    715.
 Iteration    1 A^-1*A deviation from unit magnitude is 6.22D-15 for   2510.
 Iteration    1 A^-1*A deviation from orthogonality  is 3.46D-15 for   2527    837.
 Error on total polarization charges = -0.00008
 SCF Done:  E(RPM6D3) = -0.184072714838     A.U. after   23 cycles
            NFock= 22  Conv=0.52D-08     -V/T= 0.9973
 Range of M.O.s used for correlation:     1   100
 NBasis=   100 NAE=    52 NBE=    52 NFC=     0 NFV=     0
 NROrb=    100 NOA=    52 NOB=    52 NVA=    48 NVB=    48
 PrsmSu:  requested number of processors reduced to:   1 ShMem   1 Linda.
 Symmetrizing basis deriv contribution to polar:
 IMax=3 JMax=2 DiffMx= 0.00D+00
 G2DrvN: will do    39 centers at a time, making    1 passes.
 Calling FoFCou, ICntrl=  3107 FMM=F I1Cent=   0 AccDes= 0.00D+00.
 NEqPCM:  Using equilibrium solvation (IEInf=0, Eps=   2.3741, EpsInf=   2.2383)
 G2PCM: DoFxE=T DoFxN=T DoGrad=T DoDP/DQ/DG/TGxP=FFFF NFrqRd=   0 IEInf=0 SqF1=F DoCFld=F IF1Alg=4.
 CoulSu:  requested number of processors reduced to:   3 ShMem   1 Linda.
 End of G2Drv F.D. properties file   721 does not exist.
 End of G2Drv F.D. properties file   722 does not exist.
 End of G2Drv F.D. properties file   788 does not exist.
          IDoAtm=11111111111111111111111111111111111111
 NEqPCM:  Using equilibrium solvation (IEInf=0, Eps=   2.3741, EpsInf=   2.2383)
          Differentiating once with respect to electric field.
                with respect to dipole field.
          Differentiating once with respect to nuclear coordinates.
          Electric field/nuclear overlap derivatives assumed to be zero.
 Keep J ints in memory in canonical form, NReq=16131570.
          There are   117 degrees of freedom in the 1st order CPHF.  IDoFFX=5 NUNeed=   117.
 LinEq1:  Iter=  0 NonCon=   117 RMS=2.09D-01 Max=4.99D+00 NDo=   117
 AX will form   117 AO Fock derivatives at one time.
 LinEq1:  Iter=  1 NonCon=   117 RMS=4.26D-02 Max=7.65D-01 NDo=   117
 LinEq1:  Iter=  2 NonCon=   117 RMS=1.08D-02 Max=1.85D-01 NDo=   117
 LinEq1:  Iter=  3 NonCon=   117 RMS=2.45D-03 Max=5.32D-02 NDo=   117
 LinEq1:  Iter=  4 NonCon=   117 RMS=6.14D-04 Max=9.30D-03 NDo=   117
 LinEq1:  Iter=  5 NonCon=   117 RMS=1.63D-04 Max=2.25D-03 NDo=   117
 LinEq1:  Iter=  6 NonCon=   117 RMS=4.72D-05 Max=7.77D-04 NDo=   117
 LinEq1:  Iter=  7 NonCon=   113 RMS=1.03D-05 Max=1.58D-04 NDo=   117
 LinEq1:  Iter=  8 NonCon=    62 RMS=2.23D-06 Max=2.93D-05 NDo=   117
 LinEq1:  Iter=  9 NonCon=    19 RMS=4.57D-07 Max=8.23D-06 NDo=   117
 LinEq1:  Iter= 10 NonCon=     3 RMS=9.80D-08 Max=1.32D-06 NDo=   117
 LinEq1:  Iter= 11 NonCon=     3 RMS=2.24D-08 Max=2.25D-07 NDo=   117
 LinEq1:  Iter= 12 NonCon=     0 RMS=4.80D-09 Max=6.04D-08 NDo=   117
 Linear equations converged to 1.000D-08 1.000D-07 after    12 iterations.
 Isotropic polarizability for W=    0.000000      197.28 Bohr**3.
 End of Minotr F.D. properties file   721 does not exist.
 End of Minotr F.D. properties file   722 does not exist.
 End of Minotr F.D. properties file   788 does not exist.

 **********************************************************************

            Population analysis using the SCF density.

 **********************************************************************

 Orbital symmetries:
       Occupied  (A) (A) (A) (A) (A) (A) (A) (A) (A) (A) (A) (A)
                 (A) (A) (A) (A) (A) (A) (A) (A) (A) (A) (A) (A)
                 (A) (A) (A) (A) (A) (A) (A) (A) (A) (A) (A) (A)
                 (A) (A) (A) (A) (A) (A) (A) (A) (A) (A) (A) (A)
                 (A) (A) (A) (A)
       Virtual   (A) (A) (A) (A) (A) (A) (A) (A) (A) (A) (A) (A)
                 (A) (A) (A) (A) (A) (A) (A) (A) (A) (A) (A) (A)
                 (A) (A) (A) (A) (A) (A) (A) (A) (A) (A) (A) (A)
                 (A) (A) (A) (A) (A) (A) (A) (A) (A) (A) (A) (A)
 The electronic state is 1-A.
 Alpha  occ. eigenvalues --   -1.14333  -1.11896  -1.10588  -1.08180  -1.07711
 Alpha  occ. eigenvalues --   -1.06215  -1.00635  -0.98611  -0.96511  -0.95251
 Alpha  occ. eigenvalues --   -0.92268  -0.89850  -0.82938  -0.81555  -0.80843
 Alpha  occ. eigenvalues --   -0.76200  -0.69799  -0.68748  -0.67852  -0.65922
 Alpha  occ. eigenvalues --   -0.64329  -0.63310  -0.61182  -0.60605  -0.58275
 Alpha  occ. eigenvalues --   -0.57619  -0.57314  -0.55307  -0.54688  -0.53681
 Alpha  occ. eigenvalues --   -0.52942  -0.52489  -0.51672  -0.51444  -0.50824
 Alpha  occ. eigenvalues --   -0.49915  -0.49215  -0.49045  -0.47779  -0.47322
 Alpha  occ. eigenvalues --   -0.47004  -0.46583  -0.45033  -0.43385  -0.42323
 Alpha  occ. eigenvalues --   -0.41810  -0.41181  -0.40283  -0.39089  -0.38036
 Alpha  occ. eigenvalues --   -0.35171  -0.32190
 Alpha virt. eigenvalues --   -0.04009  -0.02829  -0.00703   0.01582   0.02574
 Alpha virt. eigenvalues --    0.03281   0.06302   0.08959   0.11492   0.12322
 Alpha virt. eigenvalues --    0.12664   0.12792   0.12926   0.14382   0.14640
 Alpha virt. eigenvalues --    0.14870   0.15379   0.15740   0.16296   0.16706
 Alpha virt. eigenvalues --    0.17062   0.17527   0.17783   0.17965   0.18381
 Alpha virt. eigenvalues --    0.18467   0.18893   0.19300   0.19378   0.19593
 Alpha virt. eigenvalues --    0.19717   0.20057   0.20241   0.20744   0.21329
 Alpha virt. eigenvalues --    0.21480   0.21767   0.21821   0.21913   0.22576
 Alpha virt. eigenvalues --    0.23029   0.23573   0.24635   3.23822   3.23848
 Alpha virt. eigenvalues --    3.23954   3.25123   3.25176
          Condensed to atoms (all electrons):
               1          2          3          4          5          6
     1  C    4.084607   0.000000   0.000000   0.000000   0.000000   0.000000
     2  C    0.000000   4.203524   0.000000   0.000000   0.000000   0.000000
     3  C    0.000000   0.000000   3.910026   0.000000   0.000000   0.000000
     4  C    0.000000   0.000000   0.000000   4.185343   0.000000   0.000000
     5  C    0.000000   0.000000   0.000000   0.000000   4.078525   0.000000
     6  C    0.000000   0.000000   0.000000   0.000000   0.000000   4.184621
     7  H    0.000000   0.000000   0.000000   0.000000   0.000000   0.000000
     8  H    0.000000   0.000000   0.000000   0.000000   0.000000   0.000000
     9  H    0.000000   0.000000   0.000000   0.000000   0.000000   0.000000
    10  H    0.000000   0.000000   0.000000   0.000000   0.000000   0.000000
    11  C    0.000000   0.000000   0.000000   0.000000   0.000000   0.000000
    12  C    0.000000   0.000000   0.000000   0.000000   0.000000   0.000000
    13  C    0.000000   0.000000   0.000000   0.000000   0.000000   0.000000
    14  H    0.000000   0.000000   0.000000   0.000000   0.000000   0.000000
    15  C    0.000000   0.000000   0.000000   0.000000   0.000000   0.000000
    16  H    0.000000   0.000000   0.000000   0.000000   0.000000   0.000000
    17  O    0.000000   0.000000   0.000000   0.000000   0.000000   0.000000
    18  Cl   0.000000   0.000000   0.000000   0.000000   0.000000   0.000000
    19  C    0.000000   0.000000   0.000000   0.000000   0.000000   0.000000
    20  C    0.000000   0.000000   0.000000   0.000000   0.000000   0.000000
    21  H    0.000000   0.000000   0.000000   0.000000   0.000000   0.000000
    22  C    0.000000   0.000000   0.000000   0.000000   0.000000   0.000000
    23  H    0.000000   0.000000   0.000000   0.000000   0.000000   0.000000
    24  H    0.000000   0.000000   0.000000   0.000000   0.000000   0.000000
    25  H    0.000000   0.000000   0.000000   0.000000   0.000000   0.000000
    26  C    0.000000   0.000000   0.000000   0.000000   0.000000   0.000000
    27  H    0.000000   0.000000   0.000000   0.000000   0.000000   0.000000
    28  H    0.000000   0.000000   0.000000   0.000000   0.000000   0.000000
    29  H    0.000000   0.000000   0.000000   0.000000   0.000000   0.000000
    30  C    0.000000   0.000000   0.000000   0.000000   0.000000   0.000000
    31  H    0.000000   0.000000   0.000000   0.000000   0.000000   0.000000
    32  H    0.000000   0.000000   0.000000   0.000000   0.000000   0.000000
    33  O    0.000000   0.000000   0.000000   0.000000   0.000000   0.000000
    34  H    0.000000   0.000000   0.000000   0.000000   0.000000   0.000000
    35  H    0.000000   0.000000   0.000000   0.000000   0.000000   0.000000
    36  O    0.000000   0.000000   0.000000   0.000000   0.000000   0.000000
    37  H    0.000000   0.000000   0.000000   0.000000   0.000000   0.000000
    38  H    0.000000   0.000000   0.000000   0.000000   0.000000   0.000000
               7          8          9         10         11         12
     1  C    0.000000   0.000000   0.000000   0.000000   0.000000   0.000000
     2  C    0.000000   0.000000   0.000000   0.000000   0.000000   0.000000
     3  C    0.000000   0.000000   0.000000   0.000000   0.000000   0.000000
     4  C    0.000000   0.000000   0.000000   0.000000   0.000000   0.000000
     5  C    0.000000   0.000000   0.000000   0.000000   0.000000   0.000000
     6  C    0.000000   0.000000   0.000000   0.000000   0.000000   0.000000
     7  H    0.846302   0.000000   0.000000   0.000000   0.000000   0.000000
     8  H    0.000000   0.827210   0.000000   0.000000   0.000000   0.000000
     9  H    0.000000   0.000000   0.841601   0.000000   0.000000   0.000000
    10  H    0.000000   0.000000   0.000000   0.836915   0.000000   0.000000
    11  C    0.000000   0.000000   0.000000   0.000000   3.557620   0.000000
    12  C    0.000000   0.000000   0.000000   0.000000   0.000000   4.074119
    13  C    0.000000   0.000000   0.000000   0.000000   0.000000   0.000000
    14  H    0.000000   0.000000   0.000000   0.000000   0.000000   0.000000
    15  C    0.000000   0.000000   0.000000   0.000000   0.000000   0.000000
    16  H    0.000000   0.000000   0.000000   0.000000   0.000000   0.000000
    17  O    0.000000   0.000000   0.000000   0.000000   0.000000   0.000000
    18  Cl   0.000000   0.000000   0.000000   0.000000   0.000000   0.000000
    19  C    0.000000   0.000000   0.000000   0.000000   0.000000   0.000000
    20  C    0.000000   0.000000   0.000000   0.000000   0.000000   0.000000
    21  H    0.000000   0.000000   0.000000   0.000000   0.000000   0.000000
    22  C    0.000000   0.000000   0.000000   0.000000   0.000000   0.000000
    23  H    0.000000   0.000000   0.000000   0.000000   0.000000   0.000000
    24  H    0.000000   0.000000   0.000000   0.000000   0.000000   0.000000
    25  H    0.000000   0.000000   0.000000   0.000000   0.000000   0.000000
    26  C    0.000000   0.000000   0.000000   0.000000   0.000000   0.000000
    27  H    0.000000   0.000000   0.000000   0.000000   0.000000   0.000000
    28  H    0.000000   0.000000   0.000000   0.000000   0.000000   0.000000
    29  H    0.000000   0.000000   0.000000   0.000000   0.000000   0.000000
    30  C    0.000000   0.000000   0.000000   0.000000   0.000000   0.000000
    31  H    0.000000   0.000000   0.000000   0.000000   0.000000   0.000000
    32  H    0.000000   0.000000   0.000000   0.000000   0.000000   0.000000
    33  O    0.000000   0.000000   0.000000   0.000000   0.000000   0.000000
    34  H    0.000000   0.000000   0.000000   0.000000   0.000000   0.000000
    35  H    0.000000   0.000000   0.000000   0.000000   0.000000   0.000000
    36  O    0.000000   0.000000   0.000000   0.000000   0.000000   0.000000
    37  H    0.000000   0.000000   0.000000   0.000000   0.000000   0.000000
    38  H    0.000000   0.000000   0.000000   0.000000   0.000000   0.000000
              13         14         15         16         17         18
     1  C    0.000000   0.000000   0.000000   0.000000   0.000000   0.000000
     2  C    0.000000   0.000000   0.000000   0.000000   0.000000   0.000000
     3  C    0.000000   0.000000   0.000000   0.000000   0.000000   0.000000
     4  C    0.000000   0.000000   0.000000   0.000000   0.000000   0.000000
     5  C    0.000000   0.000000   0.000000   0.000000   0.000000   0.000000
     6  C    0.000000   0.000000   0.000000   0.000000   0.000000   0.000000
     7  H    0.000000   0.000000   0.000000   0.000000   0.000000   0.000000
     8  H    0.000000   0.000000   0.000000   0.000000   0.000000   0.000000
     9  H    0.000000   0.000000   0.000000   0.000000   0.000000   0.000000
    10  H    0.000000   0.000000   0.000000   0.000000   0.000000   0.000000
    11  C    0.000000   0.000000   0.000000   0.000000   0.000000   0.000000
    12  C    0.000000   0.000000   0.000000   0.000000   0.000000   0.000000
    13  C    4.386462   0.000000   0.000000   0.000000   0.000000   0.000000
    14  H    0.000000   0.808754   0.000000   0.000000   0.000000   0.000000
    15  C    0.000000   0.000000   4.078170   0.000000   0.000000   0.000000
    16  H    0.000000   0.000000   0.000000   0.833606   0.000000   0.000000
    17  O    0.000000   0.000000   0.000000   0.000000   6.657617   0.000000
    18  Cl   0.000000   0.000000   0.000000   0.000000   0.000000   7.094904
    19  C    0.000000   0.000000   0.000000   0.000000   0.000000   0.000000
    20  C    0.000000   0.000000   0.000000   0.000000   0.000000   0.000000
    21  H    0.000000   0.000000   0.000000   0.000000   0.000000   0.000000
    22  C    0.000000   0.000000   0.000000   0.000000   0.000000   0.000000
    23  H    0.000000   0.000000   0.000000   0.000000   0.000000   0.000000
    24  H    0.000000   0.000000   0.000000   0.000000   0.000000   0.000000
    25  H    0.000000   0.000000   0.000000   0.000000   0.000000   0.000000
    26  C    0.000000   0.000000   0.000000   0.000000   0.000000   0.000000
    27  H    0.000000   0.000000   0.000000   0.000000   0.000000   0.000000
    28  H    0.000000   0.000000   0.000000   0.000000   0.000000   0.000000
    29  H    0.000000   0.000000   0.000000   0.000000   0.000000   0.000000
    30  C    0.000000   0.000000   0.000000   0.000000   0.000000   0.000000
    31  H    0.000000   0.000000   0.000000   0.000000   0.000000   0.000000
    32  H    0.000000   0.000000   0.000000   0.000000   0.000000   0.000000
    33  O    0.000000   0.000000   0.000000   0.000000   0.000000   0.000000
    34  H    0.000000   0.000000   0.000000   0.000000   0.000000   0.000000
    35  H    0.000000   0.000000   0.000000   0.000000   0.000000   0.000000
    36  O    0.000000   0.000000   0.000000   0.000000   0.000000   0.000000
    37  H    0.000000   0.000000   0.000000   0.000000   0.000000   0.000000
    38  H    0.000000   0.000000   0.000000   0.000000   0.000000   0.000000
              19         20         21         22         23         24
     1  C    0.000000   0.000000   0.000000   0.000000   0.000000   0.000000
     2  C    0.000000   0.000000   0.000000   0.000000   0.000000   0.000000
     3  C    0.000000   0.000000   0.000000   0.000000   0.000000   0.000000
     4  C    0.000000   0.000000   0.000000   0.000000   0.000000   0.000000
     5  C    0.000000   0.000000   0.000000   0.000000   0.000000   0.000000
     6  C    0.000000   0.000000   0.000000   0.000000   0.000000   0.000000
     7  H    0.000000   0.000000   0.000000   0.000000   0.000000   0.000000
     8  H    0.000000   0.000000   0.000000   0.000000   0.000000   0.000000
     9  H    0.000000   0.000000   0.000000   0.000000   0.000000   0.000000
    10  H    0.000000   0.000000   0.000000   0.000000   0.000000   0.000000
    11  C    0.000000   0.000000   0.000000   0.000000   0.000000   0.000000
    12  C    0.000000   0.000000   0.000000   0.000000   0.000000   0.000000
    13  C    0.000000   0.000000   0.000000   0.000000   0.000000   0.000000
    14  H    0.000000   0.000000   0.000000   0.000000   0.000000   0.000000
    15  C    0.000000   0.000000   0.000000   0.000000   0.000000   0.000000
    16  H    0.000000   0.000000   0.000000   0.000000   0.000000   0.000000
    17  O    0.000000   0.000000   0.000000   0.000000   0.000000   0.000000
    18  Cl   0.000000   0.000000   0.000000   0.000000   0.000000   0.000000
    19  C    3.467474   0.000000   0.000000   0.000000   0.000000   0.000000
    20  C    0.000000   4.457917   0.000000   0.000000   0.000000   0.000000
    21  H    0.000000   0.000000   0.815459   0.000000   0.000000   0.000000
    22  C    0.000000   0.000000   0.000000   4.599765   0.000000   0.000000
    23  H    0.000000   0.000000   0.000000   0.000000   0.782547   0.000000
    24  H    0.000000   0.000000   0.000000   0.000000   0.000000   0.805254
    25  H    0.000000   0.000000   0.000000   0.000000   0.000000   0.000000
    26  C    0.000000   0.000000   0.000000   0.000000   0.000000   0.000000
    27  H    0.000000   0.000000   0.000000   0.000000   0.000000   0.000000
    28  H    0.000000   0.000000   0.000000   0.000000   0.000000   0.000000
    29  H    0.000000   0.000000   0.000000   0.000000   0.000000   0.000000
    30  C    0.000000   0.000000   0.000000   0.000000   0.000000   0.000000
    31  H    0.000000   0.000000   0.000000   0.000000   0.000000   0.000000
    32  H    0.000000   0.000000   0.000000   0.000000   0.000000   0.000000
    33  O    0.000000   0.000000   0.000000   0.000000   0.000000   0.000000
    34  H    0.000000   0.000000   0.000000   0.000000   0.000000   0.000000
    35  H    0.000000   0.000000   0.000000   0.000000   0.000000   0.000000
    36  O    0.000000   0.000000   0.000000   0.000000   0.000000   0.000000
    37  H    0.000000   0.000000   0.000000   0.000000   0.000000   0.000000
    38  H    0.000000   0.000000   0.000000   0.000000   0.000000   0.000000
              25         26         27         28         29         30
     1  C    0.000000   0.000000   0.000000   0.000000   0.000000   0.000000
     2  C    0.000000   0.000000   0.000000   0.000000   0.000000   0.000000
     3  C    0.000000   0.000000   0.000000   0.000000   0.000000   0.000000
     4  C    0.000000   0.000000   0.000000   0.000000   0.000000   0.000000
     5  C    0.000000   0.000000   0.000000   0.000000   0.000000   0.000000
     6  C    0.000000   0.000000   0.000000   0.000000   0.000000   0.000000
     7  H    0.000000   0.000000   0.000000   0.000000   0.000000   0.000000
     8  H    0.000000   0.000000   0.000000   0.000000   0.000000   0.000000
     9  H    0.000000   0.000000   0.000000   0.000000   0.000000   0.000000
    10  H    0.000000   0.000000   0.000000   0.000000   0.000000   0.000000
    11  C    0.000000   0.000000   0.000000   0.000000   0.000000   0.000000
    12  C    0.000000   0.000000   0.000000   0.000000   0.000000   0.000000
    13  C    0.000000   0.000000   0.000000   0.000000   0.000000   0.000000
    14  H    0.000000   0.000000   0.000000   0.000000   0.000000   0.000000
    15  C    0.000000   0.000000   0.000000   0.000000   0.000000   0.000000
    16  H    0.000000   0.000000   0.000000   0.000000   0.000000   0.000000
    17  O    0.000000   0.000000   0.000000   0.000000   0.000000   0.000000
    18  Cl   0.000000   0.000000   0.000000   0.000000   0.000000   0.000000
    19  C    0.000000   0.000000   0.000000   0.000000   0.000000   0.000000
    20  C    0.000000   0.000000   0.000000   0.000000   0.000000   0.000000
    21  H    0.000000   0.000000   0.000000   0.000000   0.000000   0.000000
    22  C    0.000000   0.000000   0.000000   0.000000   0.000000   0.000000
    23  H    0.000000   0.000000   0.000000   0.000000   0.000000   0.000000
    24  H    0.000000   0.000000   0.000000   0.000000   0.000000   0.000000
    25  H    0.814324   0.000000   0.000000   0.000000   0.000000   0.000000
    26  C    0.000000   4.585798   0.000000   0.000000   0.000000   0.000000
    27  H    0.000000   0.000000   0.809207   0.000000   0.000000   0.000000
    28  H    0.000000   0.000000   0.000000   0.806918   0.000000   0.000000
    29  H    0.000000   0.000000   0.000000   0.000000   0.806006   0.000000
    30  C    0.000000   0.000000   0.000000   0.000000   0.000000   4.014385
    31  H    0.000000   0.000000   0.000000   0.000000   0.000000   0.000000
    32  H    0.000000   0.000000   0.000000   0.000000   0.000000   0.000000
    33  O    0.000000   0.000000   0.000000   0.000000   0.000000   0.000000
    34  H    0.000000   0.000000   0.000000   0.000000   0.000000   0.000000
    35  H    0.000000   0.000000   0.000000   0.000000   0.000000   0.000000
    36  O    0.000000   0.000000   0.000000   0.000000   0.000000   0.000000
    37  H    0.000000   0.000000   0.000000   0.000000   0.000000   0.000000
    38  H    0.000000   0.000000   0.000000   0.000000   0.000000   0.000000
              31         32         33         34         35         36
     1  C    0.000000   0.000000   0.000000   0.000000   0.000000   0.000000
     2  C    0.000000   0.000000   0.000000   0.000000   0.000000   0.000000
     3  C    0.000000   0.000000   0.000000   0.000000   0.000000   0.000000
     4  C    0.000000   0.000000   0.000000   0.000000   0.000000   0.000000
     5  C    0.000000   0.000000   0.000000   0.000000   0.000000   0.000000
     6  C    0.000000   0.000000   0.000000   0.000000   0.000000   0.000000
     7  H    0.000000   0.000000   0.000000   0.000000   0.000000   0.000000
     8  H    0.000000   0.000000   0.000000   0.000000   0.000000   0.000000
     9  H    0.000000   0.000000   0.000000   0.000000   0.000000   0.000000
    10  H    0.000000   0.000000   0.000000   0.000000   0.000000   0.000000
    11  C    0.000000   0.000000   0.000000   0.000000   0.000000   0.000000
    12  C    0.000000   0.000000   0.000000   0.000000   0.000000   0.000000
    13  C    0.000000   0.000000   0.000000   0.000000   0.000000   0.000000
    14  H    0.000000   0.000000   0.000000   0.000000   0.000000   0.000000
    15  C    0.000000   0.000000   0.000000   0.000000   0.000000   0.000000
    16  H    0.000000   0.000000   0.000000   0.000000   0.000000   0.000000
    17  O    0.000000   0.000000   0.000000   0.000000   0.000000   0.000000
    18  Cl   0.000000   0.000000   0.000000   0.000000   0.000000   0.000000
    19  C    0.000000   0.000000   0.000000   0.000000   0.000000   0.000000
    20  C    0.000000   0.000000   0.000000   0.000000   0.000000   0.000000
    21  H    0.000000   0.000000   0.000000   0.000000   0.000000   0.000000
    22  C    0.000000   0.000000   0.000000   0.000000   0.000000   0.000000
    23  H    0.000000   0.000000   0.000000   0.000000   0.000000   0.000000
    24  H    0.000000   0.000000   0.000000   0.000000   0.000000   0.000000
    25  H    0.000000   0.000000   0.000000   0.000000   0.000000   0.000000
    26  C    0.000000   0.000000   0.000000   0.000000   0.000000   0.000000
    27  H    0.000000   0.000000   0.000000   0.000000   0.000000   0.000000
    28  H    0.000000   0.000000   0.000000   0.000000   0.000000   0.000000
    29  H    0.000000   0.000000   0.000000   0.000000   0.000000   0.000000
    30  C    0.000000   0.000000   0.000000   0.000000   0.000000   0.000000
    31  H    0.856282   0.000000   0.000000   0.000000   0.000000   0.000000
    32  H    0.000000   0.857978   0.000000   0.000000   0.000000   0.000000
    33  O    0.000000   0.000000   6.708090   0.000000   0.000000   0.000000
    34  H    0.000000   0.000000   0.000000   0.666366   0.000000   0.000000
    35  H    0.000000   0.000000   0.000000   0.000000   0.660473   0.000000
    36  O    0.000000   0.000000   0.000000   0.000000   0.000000   6.663192
    37  H    0.000000   0.000000   0.000000   0.000000   0.000000   0.000000
    38  H    0.000000   0.000000   0.000000   0.000000   0.000000   0.000000
              37         38
     1  C    0.000000   0.000000
     2  C    0.000000   0.000000
     3  C    0.000000   0.000000
     4  C    0.000000   0.000000
     5  C    0.000000   0.000000
     6  C    0.000000   0.000000
     7  H    0.000000   0.000000
     8  H    0.000000   0.000000
     9  H    0.000000   0.000000
    10  H    0.000000   0.000000
    11  C    0.000000   0.000000
    12  C    0.000000   0.000000
    13  C    0.000000   0.000000
    14  H    0.000000   0.000000
    15  C    0.000000   0.000000
    16  H    0.000000   0.000000
    17  O    0.000000   0.000000
    18  Cl   0.000000   0.000000
    19  C    0.000000   0.000000
    20  C    0.000000   0.000000
    21  H    0.000000   0.000000
    22  C    0.000000   0.000000
    23  H    0.000000   0.000000
    24  H    0.000000   0.000000
    25  H    0.000000   0.000000
    26  C    0.000000   0.000000
    27  H    0.000000   0.000000
    28  H    0.000000   0.000000
    29  H    0.000000   0.000000
    30  C    0.000000   0.000000
    31  H    0.000000   0.000000
    32  H    0.000000   0.000000
    33  O    0.000000   0.000000
    34  H    0.000000   0.000000
    35  H    0.000000   0.000000
    36  O    0.000000   0.000000
    37  H    0.675967   0.000000
    38  H    0.000000   0.656675
 Mulliken charges:
               1
     1  C   -0.084607
     2  C   -0.203524
     3  C    0.089974
     4  C   -0.185343
     5  C   -0.078525
     6  C   -0.184621
     7  H    0.153698
     8  H    0.172790
     9  H    0.158399
    10  H    0.163085
    11  C    0.442380
    12  C   -0.074119
    13  C   -0.386462
    14  H    0.191246
    15  C   -0.078170
    16  H    0.166394
    17  O   -0.657617
    18  Cl  -0.094904
    19  C    0.532526
    20  C   -0.457917
    21  H    0.184541
    22  C   -0.599765
    23  H    0.217453
    24  H    0.194746
    25  H    0.185676
    26  C   -0.585798
    27  H    0.190793
    28  H    0.193082
    29  H    0.193994
    30  C   -0.014385
    31  H    0.143718
    32  H    0.142022
    33  O   -0.708090
    34  H    0.333634
    35  H    0.339527
    36  O   -0.663192
    37  H    0.324033
    38  H    0.343325
 Sum of Mulliken charges =   0.00000
 Mulliken charges with hydrogens summed into heavy atoms:
               1
     1  C    0.069091
     2  C   -0.030734
     3  C    0.089974
     4  C   -0.185343
     5  C    0.079874
     6  C   -0.021536
    11  C    0.442380
    12  C   -0.074119
    13  C   -0.195215
    15  C    0.088224
    17  O   -0.657617
    18  Cl  -0.094904
    19  C    0.532526
    20  C   -0.273375
    22  C   -0.001890
    26  C   -0.007928
    30  C    0.271356
    33  O   -0.034929
    36  O    0.004165
 APT charges:
               1
     1  C   -0.011417
     2  C   -0.468949
     3  C    0.245120
     4  C   -0.263086
     5  C   -0.160209
     6  C   -0.284686
     7  H    0.221195
     8  H    0.239432
     9  H    0.190607
    10  H    0.234015
    11  C    0.742146
    12  C    0.193758
    13  C   -1.216520
    14  H    0.270382
    15  C    0.207249
    16  H    0.222204
    17  O   -0.915694
    18  Cl  -0.485357
    19  C    1.272486
    20  C   -1.230994
    21  H    0.263950
    22  C   -1.080079
    23  H    0.317269
    24  H    0.275245
    25  H    0.250988
    26  C   -0.873967
    27  H    0.205354
    28  H    0.256371
    29  H    0.249286
    30  C    0.875647
    31  H    0.147092
    32  H    0.060760
    33  O   -0.904577
    34  H    0.499771
    35  H    0.466434
    36  O   -0.827560
    37  H    0.354093
    38  H    0.461926
 Sum of APT charges =  -0.00031
 APT charges with hydrogens summed into heavy atoms:
               1
     1  C    0.209778
     2  C   -0.229517
     3  C    0.245120
     4  C   -0.263086
     5  C    0.030398
     6  C   -0.050671
    11  C    0.742146
    12  C    0.193758
    13  C   -0.946138
    15  C    0.429453
    17  O   -0.915694
    18  Cl  -0.485357
    19  C    1.272486
    20  C   -0.967044
    22  C   -0.236576
    26  C   -0.162957
    30  C    1.083499
    33  O    0.061627
    36  O   -0.011541
 Charge=              0.0000 electrons
 Dipole moment (field-independent basis, Debye):
    X=              1.2459    Y=             -3.4264    Z=             -3.9166  Tot=              5.3509
 N-N= 8.648579024157D+02 E-N=-1.594574047192D+03  KE=-6.742537320697D+01
  Exact polarizability: 279.760  18.304 221.295  13.863 -18.560  90.777
 Approx polarizability: 179.503   0.733 152.275   1.104 -16.439  58.665
 PrsmSu:  requested number of processors reduced to:   1 ShMem   1 Linda.
 D2PCM: C-PCM CHGder 2nd derivatives, FixD1E=F FixD2E=F DoIter=F DoCFld=F I1PDM=0
 Calling FoFJK, ICntrl=    100127 FMM=F ISym2X=0 I1Cent= 0 IOpClX= 0 NMat=1 NMatS=1 NMatT=0.
 CoulSu:  requested number of processors reduced to:   2 ShMem   1 Linda.
 Full mass-weighted force constant matrix:
 Low frequencies --- -644.2586   -3.9920   -1.9271   -0.6255    0.3403    0.5781
 Low frequencies ---    2.2295   14.5227   40.7872
 ******    1 imaginary frequencies (negative Signs) ****** 
 Diagonal vibrational polarizability:
      473.0090927     143.0258731     572.8749655
 Harmonic frequencies (cm**-1), IR intensities (KM/Mole), Raman scattering
 activities (A**4/AMU), depolarization ratios for plane and unpolarized
 incident light, reduced masses (AMU), force constants (mDyne/A),
 and normal coordinates:
                      1                      2                      3
                      A                      A                      A
 Frequencies --   -644.2586                14.1908                40.7749
 Red. masses --     10.1006                 5.4614                 6.2485
 Frc consts  --      2.4701                 0.0006                 0.0061
 IR Inten    --    551.7406                 3.4620                 2.0284
  Atom  AN      X      Y      Z        X      Y      Z        X      Y      Z
     1   6     0.01  -0.01   0.00    -0.04   0.02   0.13     0.00  -0.02  -0.04
     2   6     0.00   0.02  -0.01    -0.02   0.01   0.07     0.00  -0.01   0.02
     3   6    -0.01  -0.02   0.01    -0.01  -0.02   0.03    -0.01  -0.01   0.00
     4   6    -0.03  -0.03   0.00    -0.01  -0.04   0.04    -0.01  -0.02  -0.07
     5   6    -0.01   0.01  -0.01    -0.03  -0.04   0.10    -0.01  -0.03  -0.12
     6   6    -0.02  -0.01   0.01    -0.04  -0.01   0.14     0.00  -0.03  -0.10
     7   1    -0.01   0.00   0.00    -0.05   0.04   0.16     0.01  -0.02  -0.03
     8   1     0.00   0.00   0.00    -0.02   0.03   0.06     0.01   0.00   0.07
     9   1     0.00  -0.01   0.00    -0.03  -0.05   0.11    -0.01  -0.03  -0.16
    10   1     0.00   0.00   0.01    -0.06   0.00   0.18     0.00  -0.04  -0.15
    11   6     0.09  -0.05  -0.01     0.01  -0.07   0.01    -0.02  -0.02  -0.09
    12   6     0.01   0.04  -0.01     0.02  -0.02  -0.03    -0.01   0.00   0.03
    13   6     0.14   0.24   0.41     0.03  -0.07  -0.05    -0.03  -0.03  -0.12
    14   1    -0.06  -0.09  -0.23     0.04  -0.10  -0.07    -0.05  -0.04  -0.15
    15   6    -0.02   0.03   0.07     0.03  -0.05  -0.07    -0.03  -0.02  -0.06
    16   1    -0.01   0.02   0.00     0.05  -0.06  -0.11    -0.04  -0.03  -0.06
    17   8    -0.16  -0.10  -0.22     0.00  -0.09   0.03    -0.02  -0.01  -0.07
    18  17     0.00   0.00   0.00     0.02   0.01  -0.05     0.01   0.04   0.22
    19   6     0.14   0.23   0.26    -0.01  -0.05   0.03    -0.07   0.00  -0.02
    20   6     0.08  -0.10  -0.02     0.03  -0.05  -0.05    -0.02   0.01  -0.11
    21   1    -0.08  -0.03  -0.09     0.05  -0.09  -0.07     0.02  -0.04  -0.14
    22   6     0.04   0.02   0.05    -0.01  -0.11   0.07    -0.06  -0.05   0.08
    23   1    -0.12   0.03   0.04    -0.06  -0.10   0.02    -0.04  -0.10   0.21
    24   1     0.14  -0.04  -0.03    -0.03  -0.20   0.10    -0.10   0.05   0.11
    25   1     0.00   0.00   0.01     0.07  -0.10   0.12    -0.01  -0.15   0.02
    26   6     0.01   0.01   0.01    -0.06   0.01   0.05    -0.17   0.06  -0.03
    27   1     0.02   0.03  -0.05    -0.06   0.04   0.03    -0.17   0.12  -0.07
    28   1    -0.04  -0.10   0.05    -0.07   0.04   0.05    -0.20   0.07  -0.02
    29   1     0.02   0.04  -0.10    -0.09  -0.01   0.10    -0.23   0.04   0.01
    30   6    -0.25  -0.21  -0.43     0.03  -0.01  -0.08    -0.01   0.07  -0.15
    31   1    -0.01  -0.05  -0.11     0.06  -0.01  -0.13     0.03   0.07  -0.22
    32   1     0.01   0.07   0.11     0.01   0.04  -0.06    -0.04   0.13  -0.14
    33   8     0.00  -0.01   0.00    -0.04   0.06  -0.20     0.04  -0.02   0.09
    34   1     0.05   0.01   0.05    -0.09  -0.11  -0.08     0.01   0.00  -0.01
    35   1     0.02   0.02   0.02    -0.10   0.29  -0.08     0.17  -0.01   0.14
    36   8     0.01   0.00   0.00     0.08   0.37  -0.01     0.30   0.01   0.11
    37   1     0.00   0.04   0.02     0.15   0.33  -0.23     0.38  -0.03  -0.11
    38   1     0.09   0.04  -0.03    -0.13   0.21   0.10     0.09   0.00   0.09
                      4                      5                      6
                      A                      A                      A
 Frequencies --     51.4051                58.3275                68.7544
 Red. masses --      3.2218                 4.1604                 4.5658
 Frc consts  --      0.0050                 0.0083                 0.0127
 IR Inten    --      3.8479                 1.0731                11.2325
  Atom  AN      X      Y      Z        X      Y      Z        X      Y      Z
     1   6     0.04  -0.02  -0.05     0.10   0.07   0.19    -0.03   0.03   0.07
     2   6     0.03  -0.02  -0.03     0.07   0.05   0.16    -0.01   0.04   0.06
     3   6     0.03  -0.01  -0.01     0.03   0.04   0.03     0.00   0.00  -0.01
     4   6     0.03   0.00   0.00     0.03   0.05  -0.06     0.00  -0.03  -0.06
     5   6     0.04   0.00  -0.01     0.05   0.06  -0.06    -0.03  -0.04  -0.06
     6   6     0.05  -0.01  -0.04     0.09   0.07   0.07    -0.04  -0.01   0.00
     7   1     0.04  -0.03  -0.07     0.13   0.08   0.30    -0.03   0.06   0.12
     8   1     0.03  -0.03  -0.04     0.07   0.05   0.24     0.00   0.07   0.11
     9   1     0.04   0.01  -0.01     0.05   0.06  -0.15    -0.04  -0.07  -0.11
    10   1     0.05  -0.01  -0.05     0.11   0.08   0.07    -0.06  -0.02  -0.01
    11   6     0.03   0.01   0.01     0.00   0.06  -0.08     0.01  -0.05  -0.07
    12   6     0.03  -0.01   0.00     0.00   0.02  -0.01     0.02   0.00  -0.03
    13   6     0.02   0.00  -0.03    -0.02   0.06  -0.02     0.02  -0.06  -0.10
    14   1     0.01  -0.02  -0.06    -0.02   0.11   0.02     0.05  -0.05  -0.06
    15   6     0.02  -0.01  -0.02    -0.02   0.04  -0.02     0.03  -0.03  -0.10
    16   1     0.01  -0.01  -0.02    -0.05   0.03  -0.03     0.04  -0.03  -0.13
    17   8     0.03   0.02   0.03     0.00   0.08  -0.10     0.01  -0.06  -0.07
    18  17     0.03  -0.01   0.04    -0.02  -0.03  -0.05     0.04   0.06   0.04
    19   6    -0.03   0.01   0.06    -0.07  -0.06   0.03     0.00  -0.05   0.00
    20   6     0.03   0.03  -0.04    -0.06  -0.05   0.10    -0.04  -0.06   0.02
    21   1     0.08  -0.03  -0.06    -0.04  -0.02   0.17    -0.05  -0.03   0.06
    22   6    -0.03  -0.09   0.14    -0.06  -0.05   0.08     0.02   0.04   0.03
    23   1    -0.12  -0.04   0.00    -0.06   0.00  -0.04     0.11   0.02   0.07
    24   1    -0.09  -0.30   0.22    -0.10  -0.18   0.14     0.00   0.12   0.04
    25   1     0.13  -0.01   0.28     0.01   0.05   0.19    -0.01   0.03   0.01
    26   6    -0.14   0.09   0.07    -0.13  -0.14  -0.06     0.01  -0.11  -0.06
    27   1    -0.14   0.14   0.00    -0.13  -0.12  -0.11     0.01  -0.18  -0.11
    28   1    -0.19   0.14   0.08    -0.17  -0.22  -0.03    -0.06  -0.13  -0.03
    29   1    -0.17   0.07   0.15    -0.14  -0.13  -0.13     0.08  -0.09  -0.08
    30   6     0.04   0.09  -0.08    -0.06  -0.05   0.06    -0.05  -0.10   0.00
    31   1     0.09   0.10  -0.16    -0.05  -0.04   0.10    -0.08  -0.11   0.02
    32   1     0.01   0.17  -0.06    -0.09  -0.08   0.00    -0.06  -0.15  -0.06
    33   8     0.02  -0.01  -0.08     0.02  -0.03  -0.11     0.16   0.19   0.20
    34   1     0.05   0.01  -0.04     0.05   0.09  -0.20     0.03  -0.03   0.21
    35   1    -0.07  -0.09  -0.15     0.13  -0.15  -0.14    -0.04   0.21   0.15
    36   8    -0.23  -0.05  -0.03     0.06  -0.09  -0.02    -0.18   0.09  -0.02
    37   1    -0.37   0.06   0.33     0.02  -0.01   0.06    -0.31   0.05   0.46
    38   1     0.14  -0.02  -0.01     0.17  -0.04  -0.04     0.18   0.14  -0.01
                      7                      8                      9
                      A                      A                      A
 Frequencies --     83.2899                94.0321               108.9552
 Red. masses --      2.1898                 2.3872                 2.1889
 Frc consts  --      0.0090                 0.0124                 0.0153
 IR Inten    --     17.3110                10.0187                 2.3350
  Atom  AN      X      Y      Z        X      Y      Z        X      Y      Z
     1   6    -0.01   0.00  -0.01     0.01   0.00   0.00    -0.01   0.01   0.03
     2   6     0.00   0.00  -0.02     0.00   0.00   0.03     0.01   0.03   0.11
     3   6     0.01   0.00  -0.01    -0.01   0.01   0.03     0.02   0.01   0.05
     4   6     0.01  -0.02   0.00    -0.01   0.01   0.01     0.01  -0.02   0.00
     5   6     0.00  -0.02   0.01     0.00   0.01  -0.02    -0.01  -0.05  -0.10
     6   6    -0.01  -0.01   0.01     0.00   0.00  -0.02    -0.02  -0.04  -0.10
     7   1    -0.02   0.01  -0.01     0.01  -0.01   0.01    -0.01   0.02   0.07
     8   1     0.00   0.01  -0.03     0.00   0.00   0.05     0.03   0.07   0.20
     9   1     0.00  -0.02   0.03     0.00   0.02  -0.03    -0.02  -0.07  -0.17
    10   1    -0.02  -0.01   0.02     0.01   0.00  -0.05    -0.05  -0.06  -0.18
    11   6     0.02  -0.03   0.00    -0.02   0.02   0.02     0.02  -0.02   0.03
    12   6     0.02   0.00  -0.02    -0.02   0.01   0.04     0.03   0.00   0.01
    13   6     0.02  -0.03  -0.03    -0.02   0.03   0.05     0.03  -0.02   0.01
    14   1     0.04  -0.03  -0.01    -0.03   0.03   0.03     0.04  -0.04  -0.01
    15   6     0.03  -0.02  -0.05    -0.02   0.02   0.08     0.03  -0.02  -0.03
    16   1     0.03  -0.02  -0.08    -0.02   0.03   0.10     0.04  -0.03  -0.08
    17   8     0.02  -0.02   0.04    -0.02   0.00  -0.01     0.02  -0.02   0.08
    18  17     0.03   0.04   0.04    -0.03  -0.03  -0.05     0.03   0.02  -0.02
    19   6    -0.02   0.03   0.07     0.00  -0.05   0.00    -0.04   0.03   0.01
    20   6    -0.06   0.01   0.06     0.07  -0.02  -0.02    -0.05   0.03   0.02
    21   1    -0.07   0.04   0.08     0.10  -0.07  -0.05    -0.06   0.05   0.04
    22   6    -0.02   0.07   0.06    -0.01  -0.12   0.03    -0.03   0.07  -0.01
    23   1    -0.05   0.14  -0.13     0.04  -0.24   0.36     0.09  -0.05   0.37
    24   1    -0.03  -0.12   0.09     0.03   0.22  -0.03     0.02   0.52  -0.11
    25   1     0.03   0.20   0.19    -0.09  -0.37  -0.22    -0.22  -0.18  -0.30
    26   6     0.00   0.01   0.05    -0.06   0.00   0.01     0.00   0.04   0.04
    27   1    -0.01  -0.05   0.01    -0.06   0.12   0.06     0.00   0.17   0.19
    28   1    -0.06   0.04   0.06     0.01  -0.05   0.00     0.18  -0.05   0.01
    29   1     0.06   0.03   0.07    -0.18  -0.03  -0.01    -0.14   0.01  -0.07
    30   6    -0.07  -0.03   0.02     0.09   0.05  -0.01    -0.07   0.00  -0.01
    31   1    -0.10  -0.04   0.02     0.14   0.06  -0.03    -0.08  -0.01  -0.01
    32   1    -0.08  -0.07  -0.01     0.07   0.11   0.03    -0.06  -0.01  -0.01
    33   8     0.01   0.04  -0.02     0.10   0.12   0.06     0.03  -0.08  -0.09
    34   1    -0.01   0.00   0.01     0.02   0.02   0.00     0.08  -0.04  -0.03
    35   1    -0.04   0.06  -0.02     0.10   0.15   0.08     0.09   0.00  -0.02
    36   8     0.02  -0.07  -0.17    -0.01  -0.02  -0.12    -0.04   0.00   0.02
    37   1     0.19  -0.16  -0.65     0.11  -0.16  -0.37    -0.03  -0.04   0.02
    38   1    -0.42  -0.15  -0.16    -0.30  -0.05  -0.13    -0.06  -0.02   0.04
                     10                     11                     12
                      A                      A                      A
 Frequencies --    108.9923               116.8651               131.3215
 Red. masses --      2.3974                 3.5900                 1.1168
 Frc consts  --      0.0168                 0.0289                 0.0113
 IR Inten    --      1.4973                 7.1295                 1.0436
  Atom  AN      X      Y      Z        X      Y      Z        X      Y      Z
     1   6    -0.02   0.00   0.04    -0.06   0.00  -0.01     0.00   0.00   0.00
     2   6     0.00   0.03   0.15    -0.06   0.00   0.00     0.00   0.00  -0.01
     3   6     0.00   0.01   0.07    -0.05   0.00   0.01     0.01   0.00   0.00
     4   6    -0.01  -0.02  -0.02    -0.05   0.00   0.03     0.01   0.00   0.00
     5   6    -0.04  -0.05  -0.14    -0.05   0.00   0.03     0.00  -0.01   0.01
     6   6    -0.04  -0.05  -0.14    -0.06   0.00   0.01     0.00   0.00   0.01
     7   1    -0.02   0.02   0.09    -0.06   0.00  -0.02     0.00   0.00  -0.01
     8   1     0.02   0.07   0.30    -0.06   0.01  -0.02     0.00   0.00  -0.02
     9   1    -0.05  -0.08  -0.24    -0.04   0.01   0.03     0.00  -0.01   0.01
    10   1    -0.06  -0.08  -0.27    -0.07   0.00   0.01     0.00   0.00   0.01
    11   6     0.00  -0.01   0.01    -0.03  -0.02   0.03     0.00   0.00   0.00
    12   6     0.00   0.00   0.05    -0.04   0.01   0.01     0.01  -0.01   0.00
    13   6    -0.01  -0.01   0.01    -0.03  -0.02   0.01     0.00  -0.01  -0.01
    14   1    -0.01  -0.01   0.02    -0.02  -0.03   0.01     0.01  -0.01  -0.01
    15   6     0.00  -0.01   0.03    -0.02  -0.01   0.01     0.00  -0.01  -0.01
    16   1     0.00  -0.01   0.00    -0.01   0.00   0.00     0.00  -0.01  -0.01
    17   8     0.00  -0.01   0.01    -0.04  -0.04   0.03     0.01   0.01   0.00
    18  17    -0.02  -0.03  -0.06    -0.03   0.03  -0.01     0.01  -0.01   0.00
    19   6     0.05   0.03   0.01     0.02   0.02  -0.01     0.00   0.01   0.00
    20   6     0.04   0.03  -0.02     0.00   0.01  -0.02     0.01   0.01   0.00
    21   1     0.04   0.01  -0.06    -0.01   0.00  -0.05     0.01   0.02   0.01
    22   6     0.04   0.01   0.01     0.01   0.01  -0.03     0.01   0.01   0.02
    23   1    -0.09   0.13  -0.37    -0.09   0.11  -0.34    -0.01   0.05  -0.09
    24   1    -0.01  -0.43   0.09    -0.02  -0.35   0.03    -0.01  -0.10   0.05
    25   1     0.20   0.25   0.29     0.12   0.22   0.20     0.06   0.09   0.10
    26   6     0.03   0.05   0.01     0.04   0.02   0.01    -0.01  -0.02  -0.03
    27   1     0.03  -0.03  -0.07     0.04   0.15   0.14    -0.01   0.38   0.31
    28   1    -0.07   0.12   0.02     0.20  -0.08  -0.01     0.44  -0.39  -0.07
    29   1     0.11   0.06   0.08    -0.10  -0.01  -0.11    -0.43  -0.10  -0.39
    30   6     0.05   0.04   0.01     0.01   0.01   0.00     0.01   0.01  -0.01
    31   1     0.05   0.03  -0.01     0.00   0.00  -0.01     0.00   0.01  -0.01
    32   1     0.06   0.05   0.02     0.02   0.01   0.01     0.00   0.01  -0.01
    33   8    -0.05   0.02   0.06     0.33   0.04  -0.13    -0.05   0.02   0.03
    34   1    -0.05   0.01   0.09     0.17  -0.12  -0.33    -0.06   0.03   0.01
    35   1    -0.12  -0.01   0.02     0.34  -0.02  -0.17    -0.05  -0.01   0.02
    36   8     0.02   0.01   0.00     0.03  -0.07   0.09     0.00   0.00  -0.01
    37   1     0.04   0.04  -0.09     0.04  -0.08   0.08    -0.01   0.03  -0.02
    38   1    -0.03   0.00   0.00     0.01  -0.06   0.08     0.01   0.01  -0.01
                     13                     14                     15
                      A                      A                      A
 Frequencies --    174.1284               185.2247               194.6591
 Red. masses --      4.4283                 3.6681                 3.3210
 Frc consts  --      0.0791                 0.0741                 0.0741
 IR Inten    --     94.3724                 2.1325                 3.6845
  Atom  AN      X      Y      Z        X      Y      Z        X      Y      Z
     1   6    -0.02   0.02   0.06    -0.08  -0.03  -0.09     0.00  -0.01   0.09
     2   6    -0.03   0.00  -0.01    -0.02   0.01   0.04     0.00  -0.03  -0.04
     3   6    -0.04  -0.01  -0.08     0.03   0.00   0.13     0.01  -0.05  -0.09
     4   6    -0.04  -0.01  -0.09     0.03  -0.02   0.14     0.01  -0.07  -0.10
     5   6    -0.04   0.00  -0.07    -0.02  -0.04   0.12    -0.01  -0.07  -0.07
     6   6    -0.03   0.01   0.01    -0.07  -0.05  -0.03     0.00  -0.03   0.06
     7   1    -0.01   0.04   0.14    -0.12  -0.05  -0.23     0.01   0.03   0.20
     8   1    -0.03   0.00   0.00    -0.01   0.05   0.04     0.00  -0.02  -0.07
     9   1    -0.04  -0.01  -0.10    -0.02  -0.06   0.19    -0.01  -0.09  -0.11
    10   1    -0.02   0.02   0.05    -0.11  -0.08  -0.11     0.00  -0.01   0.15
    11   6    -0.02   0.00  -0.06     0.02  -0.04   0.05     0.01  -0.04  -0.01
    12   6    -0.05  -0.02  -0.08     0.04   0.00   0.09     0.03  -0.03  -0.02
    13   6    -0.05  -0.03  -0.10     0.02  -0.04   0.01     0.04  -0.01   0.09
    14   1    -0.02   0.02  -0.01     0.02  -0.08  -0.03     0.04   0.00   0.10
    15   6    -0.04  -0.03  -0.11     0.03  -0.02   0.03     0.04   0.01   0.10
    16   1    -0.05  -0.03  -0.11     0.03  -0.03  -0.02     0.05   0.04   0.20
    17   8    -0.03   0.02  -0.05     0.03   0.02  -0.05     0.01  -0.01   0.00
    18  17    -0.05  -0.03   0.04     0.03   0.00  -0.03     0.05   0.04  -0.01
    19   6     0.14   0.05   0.15    -0.03   0.01  -0.04    -0.05   0.01  -0.03
    20   6     0.08  -0.01   0.03    -0.01   0.02  -0.01    -0.03   0.03   0.02
    21   1     0.06  -0.03  -0.03     0.00   0.03   0.02    -0.06   0.04   0.01
    22   6     0.12   0.02   0.14     0.02   0.08   0.05    -0.11  -0.08  -0.15
    23   1     0.16  -0.08   0.40     0.13   0.06   0.16    -0.24  -0.10  -0.18
    24   1     0.18   0.30   0.07    -0.04   0.24   0.09    -0.02  -0.17  -0.22
    25   1     0.03  -0.18  -0.07     0.01   0.04   0.02    -0.14  -0.10  -0.18
    26   6     0.14   0.04   0.12    -0.07  -0.06  -0.12    -0.04   0.11   0.07
    27   1     0.14   0.06   0.13    -0.08  -0.16  -0.26    -0.04   0.18   0.13
    28   1     0.16   0.00   0.13    -0.24  -0.04  -0.08     0.03   0.17   0.03
    29   1     0.11   0.03   0.09     0.05  -0.02  -0.10    -0.11   0.08   0.13
    30   6     0.09  -0.02   0.06    -0.01   0.03  -0.02    -0.04  -0.01   0.06
    31   1     0.05  -0.05   0.01     0.00   0.03  -0.04    -0.07  -0.01   0.11
    32   1     0.08  -0.07   0.00    -0.02   0.06  -0.01     0.00  -0.04   0.08
    33   8    -0.10   0.14  -0.12    -0.07   0.18  -0.09    -0.04   0.16   0.00
    34   1    -0.10   0.22  -0.23    -0.09   0.20  -0.17    -0.09   0.12  -0.08
    35   1     0.06   0.07  -0.11    -0.03   0.07  -0.14    -0.16  -0.05  -0.17
    36   8     0.02  -0.11   0.06     0.08  -0.11  -0.01     0.05  -0.06   0.01
    37   1    -0.03  -0.06   0.16    -0.06   0.08   0.24    -0.06   0.24   0.10
    38   1     0.12  -0.08   0.05     0.40  -0.07  -0.01     0.33  -0.09   0.06
                     16                     17                     18
                      A                      A                      A
 Frequencies --    195.5297               207.9498               220.6801
 Red. masses --      3.8715                 2.2665                 9.1059
 Frc consts  --      0.0872                 0.0577                 0.2613
 IR Inten    --     44.0459                48.6918                43.5151
  Atom  AN      X      Y      Z        X      Y      Z        X      Y      Z
     1   6    -0.08   0.02   0.10    -0.04   0.01  -0.04     0.18  -0.20   0.00
     2   6    -0.05  -0.01  -0.07    -0.02   0.03   0.02     0.05  -0.23   0.06
     3   6    -0.01  -0.05  -0.11     0.00   0.02   0.04    -0.09  -0.10   0.07
     4   6    -0.01  -0.07  -0.11     0.00   0.02   0.04    -0.06  -0.04   0.03
     5   6    -0.06  -0.08  -0.06    -0.02   0.01   0.04     0.08   0.01   0.01
     6   6    -0.08  -0.01   0.10    -0.04   0.01  -0.02     0.20  -0.10  -0.01
     7   1    -0.09   0.07   0.22    -0.05   0.00  -0.10     0.25  -0.28  -0.03
     8   1    -0.05   0.01  -0.14    -0.01   0.04   0.03     0.04  -0.28   0.08
     9   1    -0.08  -0.13  -0.11    -0.02   0.01   0.07     0.11   0.13  -0.01
    10   1    -0.10   0.01   0.22    -0.05   0.00  -0.05     0.30  -0.07  -0.04
    11   6     0.01  -0.04  -0.02     0.01   0.00  -0.02    -0.07  -0.05  -0.02
    12   6     0.01  -0.02  -0.01    -0.01   0.01   0.01    -0.10  -0.10   0.07
    13   6     0.01  -0.02   0.07    -0.02  -0.02  -0.03    -0.10  -0.07  -0.02
    14   1     0.02   0.01   0.12     0.00   0.00   0.00    -0.11  -0.03   0.03
    15   6     0.03   0.01   0.13    -0.01  -0.01  -0.03    -0.07  -0.11   0.06
    16   1     0.05   0.06   0.28    -0.01  -0.02  -0.07    -0.08  -0.10   0.08
    17   8     0.01  -0.02  -0.05     0.00   0.01  -0.07    -0.07  -0.04  -0.11
    18  17     0.01  -0.02   0.00    -0.02  -0.03   0.00    -0.03   0.34  -0.10
    19   6     0.02   0.08  -0.01     0.02   0.02   0.05     0.05   0.05   0.04
    20   6     0.05   0.09   0.02    -0.01   0.00   0.03     0.01   0.01  -0.03
    21   1     0.06   0.09   0.02    -0.03   0.01   0.00    -0.03   0.00  -0.11
    22   6     0.06   0.14   0.10    -0.01  -0.02   0.00     0.05   0.04   0.08
    23   1     0.17   0.13   0.18    -0.04  -0.05   0.06     0.08   0.03   0.15
    24   1    -0.01   0.25   0.16     0.03   0.01  -0.03     0.03   0.11   0.10
    25   1     0.08   0.12   0.10    -0.03  -0.07  -0.05     0.06   0.01   0.06
    26   6    -0.09   0.01  -0.13     0.02   0.06   0.08    -0.01   0.04  -0.01
    27   1    -0.09  -0.02  -0.27     0.02   0.13   0.14    -0.01   0.08  -0.03
    28   1    -0.23  -0.05  -0.07     0.09   0.06   0.06    -0.02  -0.03   0.01
    29   1    -0.05   0.02  -0.16    -0.05   0.04   0.08    -0.06   0.02  -0.05
    30   6     0.08   0.12   0.09    -0.01  -0.03   0.06     0.04   0.00   0.10
    31   1     0.06   0.11   0.06    -0.05  -0.04   0.07    -0.03  -0.03   0.06
    32   1     0.08   0.11   0.08     0.00  -0.08   0.03     0.06  -0.05   0.08
    33   8     0.04  -0.13  -0.01     0.07  -0.08   0.05    -0.03  -0.06   0.01
    34   1     0.08  -0.10   0.04     0.09  -0.02   0.03    -0.01   0.04  -0.03
    35   1     0.08  -0.04   0.06    -0.14  -0.36  -0.18     0.05  -0.09   0.02
    36   8     0.00   0.04  -0.08     0.07   0.04  -0.18     0.01   0.03  -0.06
    37   1    -0.02  -0.07   0.10    -0.14   0.41   0.17    -0.02  -0.07   0.12
    38   1     0.06   0.03  -0.07     0.59  -0.13   0.03     0.08   0.01  -0.04
                     19                     20                     21
                      A                      A                      A
 Frequencies --    235.7056               267.6190               279.0780
 Red. masses --      1.6852                 2.8416                 1.8610
 Frc consts  --      0.0552                 0.1199                 0.0854
 IR Inten    --     68.2601                12.8116                10.9200
  Atom  AN      X      Y      Z        X      Y      Z        X      Y      Z
     1   6     0.02   0.00   0.04     0.00  -0.03   0.00     0.00   0.00  -0.03
     2   6     0.00  -0.02  -0.01     0.00  -0.02   0.02     0.00   0.01   0.02
     3   6    -0.02  -0.01  -0.03    -0.01  -0.02   0.01     0.00   0.01   0.02
     4   6    -0.02   0.00  -0.02    -0.01  -0.01   0.02     0.00   0.01   0.01
     5   6     0.00   0.00  -0.04    -0.01  -0.01   0.02     0.01   0.01   0.03
     6   6     0.02   0.00   0.01     0.00  -0.03  -0.01     0.01   0.00   0.00
     7   1     0.04   0.00   0.09     0.00  -0.04  -0.02     0.00  -0.01  -0.07
     8   1    -0.01  -0.03  -0.03     0.00  -0.02   0.04     0.01   0.01   0.03
     9   1     0.00   0.01  -0.08     0.00   0.00   0.04     0.01   0.03   0.05
    10   1     0.03   0.01   0.02     0.00  -0.03  -0.03     0.01   0.00  -0.01
    11   6    -0.01   0.01   0.05    -0.02   0.00   0.00    -0.01   0.00  -0.03
    12   6    -0.02  -0.01  -0.02     0.01  -0.03  -0.04     0.01   0.01   0.00
    13   6     0.00   0.01   0.03     0.01   0.01  -0.03     0.01   0.00  -0.02
    14   1    -0.02  -0.01  -0.02     0.04  -0.01  -0.01     0.03   0.02   0.03
    15   6    -0.02  -0.01   0.00     0.01  -0.03  -0.09     0.01   0.00  -0.03
    16   1    -0.01   0.00   0.01    -0.02  -0.06  -0.17     0.01  -0.01  -0.06
    17   8     0.00   0.01   0.12    -0.05  -0.01  -0.05    -0.03  -0.04  -0.05
    18  17    -0.02   0.02   0.00     0.03   0.00   0.01     0.01  -0.01   0.00
    19   6    -0.02  -0.04  -0.03     0.02   0.05   0.15     0.06   0.06  -0.01
    20   6     0.00  -0.02  -0.02     0.06   0.06   0.17     0.03   0.04   0.00
    21   1     0.04  -0.04   0.00     0.16   0.05   0.27    -0.03   0.09   0.01
    22   6     0.03   0.03   0.03    -0.09   0.00  -0.12     0.03  -0.02  -0.01
    23   1     0.12   0.03   0.07    -0.23  -0.01  -0.16    -0.01  -0.05   0.07
    24   1    -0.02   0.12   0.06     0.12  -0.05  -0.29     0.05   0.03  -0.03
    25   1     0.01   0.04   0.03    -0.24  -0.03  -0.22     0.04  -0.10  -0.07
    26   6     0.04  -0.08  -0.02    -0.01  -0.10  -0.01    -0.09   0.06  -0.08
    27   1     0.04  -0.14  -0.02    -0.01  -0.17  -0.12    -0.09   0.13  -0.18
    28   1     0.03  -0.08  -0.03    -0.12  -0.22   0.06    -0.17   0.01  -0.04
    29   1     0.10  -0.06  -0.04     0.07  -0.06  -0.12    -0.14   0.05  -0.08
    30   6     0.00   0.03  -0.10     0.07   0.19  -0.01     0.02  -0.08   0.09
    31   1     0.08   0.06  -0.13     0.19   0.21  -0.19    -0.10  -0.11   0.18
[...]
 0222933,-0.00081285,-0.00055469,0.00017841,-0.00010262,-0.00001804,-0.
 00117150,-0.00221865,0.00110795,-0.00121253,0.00279254,-0.00171375,-0.
 00009787,0.00024569,-0.00013080,-0.00003594,0.00031533,-0.00003355,-0.
 00093721,-0.00015982,-0.00067017,0.00003890,-0.00009708,0.00030306,0.0
 0011867,0.00004298,0.00006860,0.00060195,0.00014043,0.00005354,0.00179
 792,-0.00049484,0.00140990,-0.00005894,-0.00007895,-0.00009272,-0.0000
 9730,0.00007905,-0.00009458,-0.12440771,-0.05687511,0.06371424,0.14599
 976,-0.00002839,-0.00001223,-0.00001393,0.00006701,-0.00023901,-0.0000
 4209,-0.00022192,0.00003918,0.00001079,0.00075480,-0.00084132,-0.00023
 012,0.00062826,0.00050803,0.00016796,0.00001189,-0.00041141,-0.0000763
 0,-0.00007821,0.00006221,0.00001687,-0.00004019,-0.00000218,-0.0000007
 2,0.00278074,-0.00034778,-0.00108036,0.00012022,0.00009978,-0.00001576
 ,-0.01052784,0.00058767,-0.00022755,-0.00035806,-0.00026651,-0.0000632
 9,0.00213583,0.00170613,0.00031865,0.00016310,-0.00026554,-0.00018754,
 -0.00043258,0.00031921,0.00017357,0.00004510,-0.00009729,-0.00004444,0
 .00568177,-0.00471117,-0.00122270,0.00041550,0.00007243,-0.00003599,0.
 00112830,-0.00250488,0.00319697,0.00035825,0.00118672,-0.00050612,0.00
 018329,-0.00020461,-0.00003638,-0.00138504,0.00018950,-0.00063013,0.00
 109475,0.00054034,0.00029736,0.00021214,0.00000996,0.00015834,0.000309
 90,-0.00021233,-0.00001272,-0.00008131,-0.00016735,-0.00151748,-0.0001
 4570,0.00001558,0.00029797,0.00006294,0.00000694,0.00017940,0.00011104
 ,0.00047529,0.00050865,0.00000770,-0.00001474,0.00051645,-0.00008785,-
 0.00019822,-0.00008728,-0.00016040,0.00008053,0.00011245,-0.07734158,-
 0.05182897,0.02644482,0.06065405,0.05195135,0.00005992,0.00015990,0.00
 006276,-0.00010889,-0.00010086,-0.00002264,-0.00014374,-0.00005498,0.0
 0006252,-0.00002084,0.00010625,-0.00022007,0.00140214,0.00038502,-0.00
 029809,-0.00041408,-0.00000547,0.00001531,0.00002707,-0.00007033,-0.00
 001072,0.00009955,0.00001348,-0.00000271,-0.00153890,-0.00027349,0.000
 72298,-0.00004286,-0.00014380,0.00001364,0.00065774,-0.00025641,0.0003
 6330,0.00018697,0.00020667,0.00001866,-0.00062491,0.00013157,-0.000539
 09,-0.00008729,0.00005709,0.00020698,0.00028973,-0.00011424,-0.0000525
 9,0.00001400,0.00005922,0.00003241,-0.00215576,-0.00358813,-0.00216596
 ,-0.00021044,-0.00007033,0.00001106,0.00012649,0.00269933,0.00014800,-
 0.00085104,-0.00116388,-0.00023153,-0.00010335,0.00007295,0.00008492,0
 .00057469,-0.00067387,-0.00037827,-0.00064604,0.00016231,0.00056165,-0
 .00015612,0.00011335,-0.00004419,-0.00007431,0.00003944,0.00014607,0.0
 0004811,-0.00112150,0.00113578,0.00020987,0.00018494,-0.00029869,-0.00
 001646,0.00003594,-0.00020571,-0.00010613,0.00025888,-0.00109816,0.000
 87694,-0.00019921,0.00038341,0.00001185,0.00008211,-0.00003306,0.00002
 017,0.00007919,-0.00010019,0.04077932,0.00562618,-0.03958690,-0.074968
 31,-0.01459967,0.06483589,-0.00012103,-0.00010257,-0.00000876,0.000024
 74,0.00015816,0.00002544,0.00002655,-0.00021268,-0.00003843,0.00025721
 ,-0.00016173,-0.00006914,-0.00014911,0.00018260,0.00003123,0.00019011,
 -0.00008097,-0.00006027,-0.00001977,0.00002151,0.00001140,-0.00004166,
 -0.00000979,0.00000548,-0.00038995,0.00009322,0.00026465,-0.00000456,0
 .00002529,0.00001766,-0.00148576,-0.00061137,-0.00008264,-0.00014215,0
 .00012747,0.00004320,-0.00004998,0.00071444,-0.00033763,0.00005308,-0.
 00007355,0.00003887,0.00015838,0.00000322,0.00000938,-0.00000602,-0.00
 003194,-0.00000734,0.00083735,0.00075925,-0.00076892,0.00009569,0.0000
 2754,-0.00000403,0.00082436,0.00013855,0.00033136,-0.00059831,-0.00022
 288,-0.00010943,0.00006342,-0.00003560,-0.00000540,-0.00065985,-0.0002
 4000,0.00026073,0.00044794,0.00020292,-0.00036792,0.00002812,0.0000555
 3,-0.00005552,0.00007624,0.00009661,-0.00005037,-0.00013150,0.00006757
 ,-0.00019466,-0.00000798,-0.00001566,0.00004415,0.00003079,-0.00001541
 ,0.00002767,0.00004016,-0.00005171,0.00010111,0.00055017,-0.00012478,0
 .00043805,-0.00002116,-0.00002262,-0.00004281,-0.00003130,0.00003067,-
 0.00003001,-0.03364166,0.00412177,0.03497187,-0.02001787,0.01443187,0.
 03788459,0.05734889,0.00009059,0.00010501,0.00001158,-0.00000820,-0.00
 022340,-0.00005240,-0.00013492,0.00014085,0.00005545,0.00034767,-0.000
 21323,-0.00002352,-0.00040809,0.00004830,0.00013617,-0.00022553,-0.000
 09214,0.00001128,-0.00001225,0.00000064,0.00000116,0.00003013,0.000009
 94,-0.00000093,0.00064358,0.00001684,-0.00015444,0.00003695,0.00001041
 ,-0.00001387,-0.00139401,0.00001017,0.00009549,0.00001200,-0.00014474,
 -0.00005357,0.00037444,0.00007898,-0.00007467,-0.00008094,-0.00004175,
 0.00003223,-0.00019422,0.00001349,0.00003341,0.00001031,0.00001102,0.0
 0000343,0.00147285,-0.00122493,-0.00157185,0.00005083,-0.00000821,-0.0
 0000840,-0.00046157,-0.00008849,0.00093092,0.00038414,0.00019668,-0.00
 025605,-0.00002677,-0.00004489,0.00007077,-0.00010156,-0.00019000,-0.0
 0106738,0.00026215,0.00055499,0.00081801,0.00008315,0.00002858,0.00009
 604,0.00018396,-0.00025572,0.00029550,0.00015297,-0.00042009,-0.000098
 96,0.00000468,0.00006308,-0.00003719,0.00000475,0.00001694,0.00000919,
 -0.00001242,0.00019033,-0.00012158,-0.00010837,0.00004820,-0.00000526,
 -0.00001992,-0.00002852,-0.00002107,-0.00003017,0.00003736,0.00004064,
 0.02176019,-0.05657689,-0.07930513,-0.00793400,0.00726841,0.01275572,-
 0.01410389,0.05247115,0.00006509,0.00012336,0.00002026,-0.00007775,-0.
 00010763,-0.00003392,-0.00010249,0.00002415,0.00005006,-0.00014185,0.0
 0005866,-0.00004515,-0.00044908,-0.00005548,0.00003867,-0.00025565,0.0
 0001720,0.00000936,0.00002669,-0.00004811,-0.00000473,0.00007742,0.000
 01223,0.00000444,0.00114450,-0.00011702,-0.00022589,-0.00000813,-0.000
 07425,0.00000517,0.00077681,-0.00002685,0.00031241,0.00019027,0.000111
 73,-0.00000007,-0.00047417,-0.00007758,-0.00056751,-0.00012635,0.00005
 345,0.00018773,0.00015769,-0.00009549,-0.00005823,0.00000978,0.0000583
 8,0.00003534,-0.00123813,-0.00198197,-0.00099506,-0.00017802,-0.000058
 09,0.00000907,0.00090041,0.00162952,-0.00039818,-0.00082821,-0.0009053
 9,-0.00017524,-0.00007038,0.00008813,0.00010236,0.00005563,-0.00194007
 ,0.00048276,-0.00112445,0.00243277,-0.00171316,-0.00019191,0.00019597,
 -0.00014920,-0.00014565,0.00029027,0.00023262,-0.00021916,-0.00051944,
 0.00060178,0.00009490,0.00007124,-0.00010793,0.00001927,0.00005037,-0.
 00010425,0.00006294,0.00011238,-0.00035140,0.00060243,-0.00016007,0.00
 022308,0.00001084,0.00008415,0.00000021,0.00002602,0.00003031,-0.00007
 461,0.05512382,-0.06219761,-0.12866438,0.01411188,-0.01002120,-0.02350
 412,-0.06872570,0.06623498,0.15220385,0.00015740,0.00013586,0.00001139
 ,0.00000477,-0.00017156,-0.00000820,0.00006761,0.00032317,0.00001456,-
 0.00032323,0.00047499,0.00010039,0.00005796,-0.00027105,-0.00004960,-0
 .00020958,0.00012764,0.00008242,0.00002389,-0.00002597,-0.00001911,0.0
 0003085,0.00000627,-0.00001529,-0.00007062,-0.00005174,-0.00009080,-0.
 00002448,-0.00004279,-0.00002354,0.00212529,0.00089325,0.00035716,0.00
 016499,-0.00027133,-0.00007177,0.00037172,-0.00147911,0.00118054,-0.00
 002976,0.00020412,-0.00024974,-0.00031597,0.00006275,-0.00000581,0.000
 00466,0.00003344,-0.00001343,-0.00255556,-0.00112028,0.00533702,-0.000
 11632,-0.00002074,0.00000610,-0.00173677,-0.00097555,-0.00019176,0.001
 66745,0.00092464,0.00017928,-0.00013351,0.00003455,0.00002508,0.000475
 94,0.00048923,-0.00149249,-0.00003788,-0.00009847,0.00052990,0.0000389
 0,-0.00004472,0.00005222,0.00004348,-0.00021456,0.00044896,0.00027750,
 0.00016292,0.00015713,-0.00001638,-0.00002295,-0.00003600,-0.00005310,
 0.00000193,-0.00000801,-0.00007895,-0.00003816,0.00000956,-0.00150700,
 0.00033543,-0.00107930,0.00004165,0.00000336,0.00009838,0.00006315,-0.
 00008443,0.00010015,0.00373025,-0.00242805,-0.00388641,-0.00151314,-0.
 00096688,-0.00061211,-0.00304602,0.00407095,0.00377979,0.20363930,-0.0
 0016444,-0.00013748,-0.00001152,-0.00002010,0.00031488,0.00006938,0.00
 012546,-0.00028634,-0.00007579,-0.00034490,0.00019978,-0.00011255,0.00
 006161,0.00007341,-0.00006047,0.00027470,0.00004885,-0.00004055,0.0000
 1299,-0.00001119,0.00000259,-0.00002448,-0.00001357,0.00000522,-0.0004
 1975,-0.00003888,0.00018651,-0.00004502,-0.00003320,0.00002225,0.00095
 611,-0.00016288,0.00035028,-0.00004353,0.00030787,0.00008598,-0.000497
 83,0.00049063,0.00000549,0.00031154,-0.00002546,-0.00005275,0.00034967
 ,0.00000632,-0.00002886,-0.00000680,-0.00003804,-0.00000802,-0.0049286
 0,0.00363806,0.00408566,-0.00006845,0.00000525,0.00001085,0.00006860,-
 0.00034336,-0.00086033,-0.00046068,-0.00018253,0.00058881,0.00008605,0
 .00002850,-0.00024774,0.00053616,0.00125120,0.00111119,0.00014637,-0.0
 0109395,0.00032871,-0.00005701,-0.00016302,-0.00001956,-0.00011032,-0.
 00015649,-0.00033495,-0.00001243,0.00045877,0.00010779,-0.00000902,-0.
 00006407,0.00000080,-0.00002295,-0.00004073,-0.00001590,-0.00005053,-0
 .00017514,0.00011436,0.00039487,-0.00004263,0.00023408,0.00002185,0.00
 001272,-0.00002697,0.00001570,-0.00002043,-0.00007697,0.00400643,-0.00
 428441,-0.01122065,-0.00240131,-0.00185207,0.00161125,-0.00184268,0.00
 132866,0.00727307,-0.03139892,0.11076116,-0.00011687,-0.00018456,-0.00
 002903,0.00013344,0.00006700,-0.00000028,-0.00008389,-0.00023748,-0.00
 006473,0.00154227,-0.00087605,0.00030139,0.00016796,0.00042757,0.00011
 433,0.00034129,-0.00020489,-0.00007953,-0.00007821,0.00009150,0.000020
 62,-0.00011541,-0.00002291,-0.00000812,-0.00024687,0.00015412,0.000031
 07,0.00004054,0.00011843,-0.00000626,-0.00580145,-0.00163500,-0.002424
 88,-0.00048050,-0.00014290,0.00002441,0.00100796,0.00133618,0.00026485
 ,0.00013357,-0.00031787,-0.00034577,-0.00024509,0.00012111,0.00017143,
 -0.00000741,-0.00013267,-0.00009468,0.01442242,0.00134800,-0.01048346,
 0.00047565,0.00011778,-0.00004006,-0.00009302,-0.00162122,0.00275715,0
 .00075503,0.00120840,-0.00057018,0.00011691,-0.00030333,0.00000533,-0.
 00165297,0.00124656,-0.00328502,0.00068450,-0.00011237,0.00105663,0.00
 032179,-0.00006445,0.00018675,0.00045385,-0.00056299,0.00010296,0.0002
 4170,-0.00006825,-0.00110937,-0.00011902,-0.00000218,0.00014525,0.0000
 1810,-0.00005827,0.00017022,-0.00000533,0.00010978,0.00025151,-0.00017
 742,0.00014007,0.00033437,-0.00008857,-0.00022444,-0.00012126,-0.00014
 050,0.00006960,0.00013962,0.00204304,-0.00512150,-0.00384224,-0.001640
 38,0.00115370,0.00074858,-0.00192644,0.00087373,-0.00108435,0.02933825
 ,-0.11455318,0.15999509,-0.00007879,-0.00004679,0.00000038,-0.00001390
 ,0.00008892,0.00000487,-0.00000791,-0.00012637,0.00001174,-0.00014474,
 -0.00010221,-0.00023881,-0.00005125,0.00006299,-0.00000310,0.00006907,
 -0.00005703,-0.00003894,-0.00000388,0.00000343,0.00000839,-0.00000860,
 -0.00000010,0.00001168,0.00008084,-0.00000272,0.00003005,0.00001057,0.
 00001531,0.00001552,-0.00056255,-0.00030262,0.00117326,-0.00001917,0.0
 0015026,0.00001677,-0.00034940,0.00070269,-0.00074980,0.00007835,-0.00
 009212,0.00016671,0.00014815,-0.00004113,-0.00001848,-0.00000520,-0.00
 001071,0.00002316,-0.00191521,0.00012187,0.00010493,0.00001363,-0.0000
 0177,0.00000332,0.00054179,0.00087738,-0.00058731,-0.00100569,-0.00066
 412,0.00003209,0.00005388,0.00001224,-0.00004868,0.00012512,-0.0002298
 5,0.00082739,-0.00013285,0.00001463,-0.00029499,-0.00005027,0.00001419
 ,-0.00003046,-0.00014020,0.00012336,-0.00020683,-0.00012493,-0.0000447
 9,0.00013793,0.00002133,0.00000448,-0.00001285,0.00001627,0.00001045,-
 0.00001395,0.00002930,-0.00000537,-0.00003596,0.00082443,-0.00021586,0
 .00053070,-0.00000420,0.00003110,-0.00002703,-0.00000633,0.00002899,-0
 .00007773,-0.00081275,0.00104985,0.00134373,0.00077801,-0.00009186,-0.
 00034280,-0.00104248,-0.00317465,-0.00262149,-0.17258427,0.05637623,-0
 .06356204,0.18581837,0.00008069,0.00006519,0.00000509,-0.00000114,-0.0
 0014787,-0.00002241,-0.00005750,0.00016100,0.00002533,0.00001371,-0.00
 009745,0.00003318,-0.00000512,-0.00005969,0.00005124,-0.00013074,-0.00
 000094,0.00003599,-0.00000092,0.00000163,-0.00000556,0.00001606,0.0000
 0915,-0.00000449,0.00011108,0.00001026,-0.00009107,0.00001424,0.000009
 56,-0.00001670,-0.00020132,0.00056849,0.00035590,0.00004542,-0.0001366
 0,-0.00003724,0.00024093,-0.00018958,-0.00015674,-0.00012754,0.0000042
 9,0.00006813,-0.00013998,0.00000021,0.00000102,0.00000728,0.00002314,0
 .00000982,-0.00028791,-0.00113858,0.00031140,0.00001366,-0.00000780,-0
 .00000300,-0.00004295,0.00010642,0.00015864,0.00009063,0.00001149,-0.0
 0017414,-0.00002111,0.00000591,0.00007232,-0.00001149,-0.00023432,-0.0
 0013839,-0.00002303,0.00018013,-0.00000121,0.00000202,0.00004211,0.000
 01929,0.00003036,0.00003014,0.00012306,0.00002207,-0.00012592,-0.00001
 769,-0.00000198,0.00002091,-0.00000364,0.00000327,0.00001329,0.0000039
 6,0.00000399,0.00004450,-0.00002560,-0.00006901,-0.00000853,-0.0000434
 9,-0.00000790,0.00000465,0.00000875,-0.00000725,0.00001018,0.00001524,
 0.00065024,-0.00045742,0.00036053,0.00003177,0.00002183,-0.00102411,-0
 .00197715,0.00103838,-0.00031779,0.02681065,-0.02681828,0.02534302,-0.
 05529186,0.04058126,0.00013308,0.00013979,0.00001508,-0.00004213,-0.00
 012141,-0.00003457,0.00005693,0.00022305,0.00006395,-0.00070546,0.0005
 9586,0.00007556,-0.00008911,-0.00027647,-0.00005063,-0.00025552,0.0001
 3878,0.00005675,0.00003543,-0.00004104,-0.00000793,0.00005679,0.000009
 48,0.00000509,0.00010492,-0.00007233,-0.00004266,-0.00002048,-0.000057
 54,0.00000137,0.00476260,0.00100477,-0.00047521,0.00021991,-0.00006593
 ,-0.00004464,-0.00040389,-0.00128031,0.00033900,-0.00008231,0.00020675
 ,0.00005011,0.00000669,-0.00003666,-0.00005437,0.00000332,0.00006174,0
 .00004203,-0.00227967,-0.00121623,0.00128221,-0.00021533,-0.00005115,0
 .00001678,-0.00052228,0.00008251,-0.00102985,0.00038260,-0.00004088,0.
 00029573,-0.00007285,0.00011089,0.00001101,0.00040983,-0.00023772,0.00
 039426,-0.00020496,0.00006679,-0.00026162,-0.00006739,0.00001691,-0.00
 006970,-0.00013855,0.00012719,-0.00006472,-0.00005453,0.00008412,0.000
 41687,0.00004509,-0.00000687,-0.00004761,-0.00001090,0.00002113,-0.000
 06096,-0.00000720,-0.00003996,-0.00007866,-0.00058449,0.00008300,-0.00
 058793,0.00005308,0.00008185,0.00009035,0.00007826,-0.00006567,-0.0000
 0376,0.00039585,0.00071044,0.00016430,0.00002659,-0.00102018,-0.001178
 38,-0.00178029,-0.00132055,-0.00033465,-0.02873441,0.02503467,-0.03295
 687,0.06614544,-0.04202741,0.05299872,-0.00018958,-0.00017924,-0.00001
 876,0.00004418,0.00017726,0.00000532,-0.00016158,-0.00045158,-0.000054
 23,0.00132269,-0.00106872,0.00009891,0.00005405,0.00044909,0.00011660,
 0.00028712,-0.00020377,-0.00010785,-0.00004149,0.00004517,0.00001978,-
 0.00005378,-0.00001412,0.00000715,0.00005601,0.00007019,0.00000953,0.0
 0003883,0.00006922,0.00000808,-0.00862115,-0.00181991,-0.00003991,-0.0
 0026302,0.00023339,0.00008585,-0.00001219,0.00211293,-0.00131881,-0.00
 010479,-0.00050473,0.00010618,0.00021479,-0.00003623,0.00004207,0.0000
 0249,-0.00006772,-0.00002375,0.00057388,0.00249145,0.00403596,0.000251
 43,0.00005300,-0.00002293,0.00249765,0.00084403,0.00108035,-0.00191415
 ,-0.00072967,-0.00054076,0.00020683,-0.00011502,-0.00000435,-0.0008037
 4,-0.00034211,0.00103938,0.00001696,-0.00028498,-0.00069165,-0.0000850
 8,0.00004255,-0.00001174,-0.00018457,0.00046660,-0.00056156,-0.0003678
 0,-0.00020977,-0.00046622,-0.00001078,0.00003142,0.00010159,0.00006147
 ,-0.00001826,0.00003819,0.00009839,0.00006107,0.00003738,0.00167303,-0
 .00039548,0.00136102,-0.00007594,-0.00006230,-0.00013560,-0.00011173,0
 .00010888,-0.00007342,-0.00100582,0.00056503,0.00061736,0.00095832,0.0
 0058978,-0.00004260,0.00055367,-0.00154445,-0.00025728,-0.02863379,-0.
 02081435,0.02434503,-0.00954478,0.03021768,-0.03664594,0.04327357,0.00
 018504,0.00015957,0.00001499,0.00002096,-0.00027215,-0.00004971,-0.000
 01717,0.00038253,0.00007722,-0.00031785,0.00022213,0.00000895,-0.00002
 108,-0.00023492,-0.00001254,-0.00028488,0.00004932,0.00006254,0.000001
 55,-0.00000350,-0.00000582,0.00001877,0.00001034,-0.00000441,0.0001780
 2,-0.00001652,-0.00009510,0.00001024,0.00000015,-0.00001084,0.00156357
 ,0.00117313,0.00049563,0.00009909,-0.00034511,-0.00010203,0.00032126,-
 0.00127562,0.00046196,-0.00036416,-0.00003253,-0.00005856,-0.00034399,
 0.00000611,-0.00002143,-0.00000030,0.00003564,0.00000860,0.00477568,-0
 .00425363,-0.00603613,-0.00000400,-0.00001272,0.00000025,-0.00045123,0
 .00039529,0.00026966,0.00075781,0.00034355,-0.00052084,-0.00009722,-0.
 00002622,0.00023002,-0.00015377,-0.00109542,-0.00025445,-0.00035519,0.
 00059142,-0.00070828,0.00002185,0.00008290,-0.00001375,0.00012713,0.00
 033994,0.00005174,0.00000926,-0.00022303,0.00013238,0.00001640,0.00002
 498,-0.00000857,0.00000646,0.00002896,0.00000247,0.00002643,0.00005670
 ,-0.00008419,-0.00091177,0.00011421,-0.00067231,0.00000974,-0.00000044
 ,0.00008043,0.00003607,-0.00003012,0.00009536,-0.00021626,0.00124969,0
 .00109375,0.00099502,-0.00096530,-0.00137852,-0.00132027,-0.00413553,-
 0.00024906,0.00463254,-0.08294142,0.09251760,0.00081338,-0.01354059,0.
 01917878,-0.00976706,0.10413751,0.00003849,0.00009939,0.00002012,-0.00
 016122,0.00006414,0.00004362,0.00013931,0.00016924,0.00001218,-0.00201
 508,0.00091108,-0.00027294,-0.00013026,-0.00039520,-0.00013988,-0.0001
 7726,0.00022258,0.00008022,0.00007849,-0.00008634,-0.00002467,0.000099
 83,0.00002374,0.00000323,-0.00002743,-0.00014100,0.00005735,-0.0000600
 9,-0.00011993,0.00000402,0.00830741,0.00239063,0.00224823,0.00043735,0
 .00028235,0.00003625,-0.00120359,-0.00105009,-0.00052549,-0.00012815,0
 .00035334,0.00044548,0.00044685,-0.00013826,-0.00019271,0.00000318,0.0
 0013180,0.00008628,-0.00598077,-0.00242673,-0.00211823,-0.00048111,-0.
 00011561,0.00004252,0.00026406,0.00159692,-0.00427374,-0.00107931,-0.0
 0163175,0.00092283,-0.00014427,0.00039411,-0.00005668,0.00171535,-0.00
 015856,0.00154513,-0.00089570,-0.00100187,-0.00081614,-0.00037951,-0.0
 0000091,-0.00009665,-0.00098067,0.00077941,0.00003756,-0.00017332,0.00
 028760,0.00114033,0.00009170,-0.00001028,-0.00014880,-0.00004885,0.000
 04539,-0.00017055,-0.00006009,-0.00018541,-0.00016532,0.00063485,-0.00
 016988,-0.00006247,0.00007202,0.00025255,0.00007819,0.00012612,-0.0000
 5861,-0.00019559,0.00078492,0.00075388,-0.00249317,-0.00023924,-0.0018
 7910,0.00041645,0.00016094,0.00168254,0.00407307,-0.00521820,0.0865200
 6,-0.11027781,-0.00167917,0.01710811,-0.01893355,0.00786133,-0.1044971
 0,0.12967321\\0.00000040,0.00000081,-0.00000097,-0.00000020,-0.0000002
 1,-0.00000173,0.00000035,0.00000062,-0.00000170,0.00000023,0.00000008,
 -0.00000157,0.00000055,-0.00000229,-0.00000208,-0.00000024,-0.00000039
 ,0.00000097,-0.00000013,0.00000016,-0.00000163,-0.00000012,0.00000031,
 -0.00000238,0.00000415,0.00000145,0.00000057,0.00000008,0.00000031,-0.
 00000007,0.00000248,0.00000091,0.00000037,-0.00000068,0.00000058,-0.00
 000140,-0.00000127,0.00000011,-0.00000276,0.00000245,0.00000113,-0.000
 00211,-0.00000008,-0.00000056,-0.00000144,0.00000035,0.00000018,-0.000
 00166,-0.00000367,0.00000020,0.00000418,0.00000043,0.00000046,-0.00000
 285,-0.00000211,0.00000130,-0.00000348,0.00000168,0.00000085,0.0000009
 6,0.00000015,-0.00000063,0.00000122,0.00000175,-0.00000323,0.00000736,
 -0.00000063,-0.00000107,0.00000182,0.00000003,-0.00000079,0.00000006,0
 .00000003,0.00000002,0.00000138,-0.00000053,-0.00000019,0.00000097,-0.
 00000119,-0.00000022,-0.00000005,-0.00000181,-0.00000069,0.00000091,-0
 .00000081,-0.00000058,0.00000116,-0.00000223,-0.00000009,0.00000139,-0
 .00000069,-0.00000027,-0.00000107,-0.00000085,-0.00000042,-0.00000008,
 -0.00000069,-0.00000105,0.00000142,-0.00000167,0.00000225,-0.00000023,
 -0.00000006,0.00000164,0.00000189,0.00000027,-0.00000116,0.00000493,0.
 00000190,0.00000011,0.00000023,0.00000236,0.00000033,-0.00000253\\\@


 THE ONLY TROUBLE WITH A SURE THING IS THE UNCERTAINTY.
     -- FROM A TEABAG (BELONGING TO W.H.?)
 Job cpu time:       0 days  0 hours  0 minutes 56.4 seconds.
 File lengths (MBytes):  RWF=    224 Int=      0 D2E=      0 Chk=     10 Scr=      1
 Normal termination of Gaussian 09 at Thu Aug 20 15:51:47 2020.
