 Entering Gaussian System, Link 0=g09
 Input=dmad_4H2O_cycloaddition_PM6_toluene_water.com
 Output=dmad_4H2O_cycloaddition_PM6_toluene_water.log
 Initial command:
 /apps/applications/gaussian/G09.D01/2/default/g09/l1.exe "/local/730375.1.40core-192G.q/Gau-79219.inp" -scrdir="/local/730375.1.40core-192G.q/"
 Entering Link 1 = /apps/applications/gaussian/G09.D01/2/default/g09/l1.exe PID=     79220.
  
 Copyright (c) 1988,1990,1992,1993,1995,1998,2003,2009,2013,
            Gaussian, Inc.  All Rights Reserved.
  
 This is part of the Gaussian(R) 09 program.  It is based on
 the Gaussian(R) 03 system (copyright 2003, Gaussian, Inc.),
 the Gaussian(R) 98 system (copyright 1998, Gaussian, Inc.),
 the Gaussian(R) 94 system (copyright 1995, Gaussian, Inc.),
 the Gaussian 92(TM) system (copyright 1992, Gaussian, Inc.),
 the Gaussian 90(TM) system (copyright 1990, Gaussian, Inc.),
 the Gaussian 88(TM) system (copyright 1988, Gaussian, Inc.),
 the Gaussian 86(TM) system (copyright 1986, Carnegie Mellon
 University), and the Gaussian 82(TM) system (copyright 1983,
 Carnegie Mellon University). Gaussian is a federally registered
 trademark of Gaussian, Inc.
  
 This software contains proprietary and confidential information,
 including trade secrets, belonging to Gaussian, Inc.
  
 This software is provided under written license and may be
 used, copied, transmitted, or stored only in accord with that
 written license.
  
 The following legend is applicable only to US Government
 contracts under FAR:
  
                    RESTRICTED RIGHTS LEGEND
  
 Use, reproduction and disclosure by the US Government is
 subject to restrictions as set forth in subparagraphs (a)
 and (c) of the Commercial Computer Software - Restricted
 Rights clause in FAR 52.227-19.
  
 Gaussian, Inc.
 340 Quinnipiac St., Bldg. 40, Wallingford CT 06492
  
  
 ---------------------------------------------------------------
 Warning -- This program may not be used in any manner that
 competes with the business of Gaussian, Inc. or will provide
 assistance to any competitor of Gaussian, Inc.  The licensee
 of this program is prohibited from giving any competitor of
 Gaussian, Inc. access to this program.  By using this program,
 the user acknowledges that Gaussian, Inc. is engaged in the
 business of creating and licensing software in the field of
 computational chemistry and represents and warrants to the
 licensee that it is not a competitor of Gaussian, Inc. and that
 it will not use this program in any manner prohibited above.
 ---------------------------------------------------------------
  

 Cite this work as:
 Gaussian 09, Revision D.01,
 M. J. Frisch, G. W. Trucks, H. B. Schlegel, G. E. Scuseria, 
 M. A. Robb, J. R. Cheeseman, G. Scalmani, V. Barone, B. Mennucci, 
 G. A. Petersson, H. Nakatsuji, M. Caricato, X. Li, H. P. Hratchian, 
 A. F. Izmaylov, J. Bloino, G. Zheng, J. L. Sonnenberg, M. Hada, 
 M. Ehara, K. Toyota, R. Fukuda, J. Hasegawa, M. Ishida, T. Nakajima, 
 Y. Honda, O. Kitao, H. Nakai, T. Vreven, J. A. Montgomery, Jr., 
 J. E. Peralta, F. Ogliaro, M. Bearpark, J. J. Heyd, E. Brothers, 
 K. N. Kudin, V. N. Staroverov, T. Keith, R. Kobayashi, J. Normand, 
 K. Raghavachari, A. Rendell, J. C. Burant, S. S. Iyengar, J. Tomasi, 
 M. Cossi, N. Rega, J. M. Millam, M. Klene, J. E. Knox, J. B. Cross, 
 V. Bakken, C. Adamo, J. Jaramillo, R. Gomperts, R. E. Stratmann, 
 O. Yazyev, A. J. Austin, R. Cammi, C. Pomelli, J. W. Ochterski, 
 R. L. Martin, K. Morokuma, V. G. Zakrzewski, G. A. Voth, 
 P. Salvador, J. J. Dannenberg, S. Dapprich, A. D. Daniels, 
 O. Farkas, J. B. Foresman, J. V. Ortiz, J. Cioslowski, 
 and D. J. Fox, Gaussian, Inc., Wallingford CT, 2013.
 
 ******************************************
 Gaussian 09:  ES64L-G09RevD.01 24-Apr-2013
                 8-Sep-2020 
 ******************************************
 %nprocshared=4
 Will use up to    4 processors via shared memory.
 %chk=dmad_4H2O_cycloaddition_PM6_toluene_water.chk
 ----------------------------------------------------------------------
 # opt freq pm6 scrf=(cpcm,solvent=water) geom=connectivity empiricaldi
 spersion=gd3
 ----------------------------------------------------------------------
 1/14=-1,18=20,19=15,26=1,38=1,57=2/1,3;
 2/9=110,12=2,17=6,18=5,40=1/2;
 3/5=2,16=1,25=1,41=3900000,70=2101,71=1,72=1,124=31/1,2,3;
 4/35=1/1;
 5/5=2,35=1,38=5,53=1/2;
 6/7=2,8=2,9=2,10=2,28=1/1;
 7//1,2,3,16;
 1/14=-1,18=20,19=15,26=1/3(2);
 2/9=110/2;
 99//99;
 2/9=110/2;
 3/5=2,16=1,25=1,41=3900000,70=2105,71=1,72=1,124=31,135=20/1,2,3;
 4/5=5,16=3,35=1/1;
 5/5=2,35=1,38=5,53=1/2;
 7//1,2,3,16;
 1/14=-1,18=20,19=15,26=1/3(-5);
 2/9=110/2;
 6/7=2,8=2,9=2,10=2,19=2,28=1/1;
 99/9=1/99;
 -------------------
 Title Card Required
 -------------------
 Symbolic Z-matrix:
 Charge =  0 Multiplicity = 1
 N                     0.39632  -0.24942   0.25421 
 N                    -0.36608   0.24228  -0.577 
 C                     1.80704  -0.49902  -0.08909 
 C                    -1.77622   0.4971   -0.23921 
 O                    -2.22045   1.60586  -0.08335 
 O                     2.26811  -1.60718  -0.18802 
 O                    -2.44462  -0.67728  -0.3054 
 O                     2.45614   0.68773  -0.10935 
 C                     3.91659   0.66253  -0.23271 
 H                     4.14979   1.74025  -0.21787 
 H                     4.35483   0.133     0.62492 
 H                     4.19669   0.19342  -1.17938 
 C                    -3.90861  -0.62928  -0.24802 
 H                    -4.15665  -1.70402  -0.23369 
 H                    -4.23686  -0.12093   0.66909 
 H                    -4.28962  -0.12863  -1.14182 
 O                     4.9523   -1.93736   0.8274 
 H                     4.13787  -2.24188   0.40623 
 H                     5.13942  -2.55346   1.53193 
 O                     2.74298   3.55471  -0.18571 
 H                     2.3585    4.04852  -0.90698 
 H                     2.11006   2.86915   0.0434 
 O                    -2.87678  -3.56952  -0.10421 
 H                    -2.18239  -2.91134  -0.01777 
 H                    -2.61175  -4.15147  -0.81379 
 O                    -4.90734   1.93326   0.92164 
 H                    -4.07309   2.2283    0.5333 
 H                    -5.10406   2.53932   1.63207 
 
 Add virtual bond connecting atoms O26        and H15        Dist= 4.11D+00.
 Add virtual bond connecting atoms H27        and O5         Dist= 3.87D+00.
 Add virtual bond connecting atoms O17        and H11        Dist= 4.09D+00.
 Add virtual bond connecting atoms H18        and O6         Dist= 3.90D+00.
 Add virtual bond connecting atoms O20        and H10        Dist= 4.34D+00.
 Add virtual bond connecting atoms H22        and O8         Dist= 4.18D+00.
 Add virtual bond connecting atoms H22        and H10        Dist= 4.43D+00.
 Add virtual bond connecting atoms O23        and H14        Dist= 4.28D+00.
 Add virtual bond connecting atoms H24        and O7         Dist= 4.29D+00.
 Add virtual bond connecting atoms H24        and H14        Dist= 4.39D+00.

 GradGradGradGradGradGradGradGradGradGradGradGradGradGradGradGradGradGrad
 Berny optimization.
 Initialization pass.
                           ----------------------------
                           !    Initial Parameters    !
                           ! (Angstroms and Degrees)  !
 --------------------------                            --------------------------
 ! Name  Definition              Value          Derivative Info.                !
 --------------------------------------------------------------------------------
 ! R1    R(1,2)                  1.2304         estimate D2E/DX2                !
 ! R2    R(1,3)                  1.4732         estimate D2E/DX2                !
 ! R3    R(2,4)                  1.4723         estimate D2E/DX2                !
 ! R4    R(3,6)                  1.2043         estimate D2E/DX2                !
 ! R5    R(3,8)                  1.3528         estimate D2E/DX2                !
 ! R6    R(4,5)                  1.2046         estimate D2E/DX2                !
 ! R7    R(4,7)                  1.3529         estimate D2E/DX2                !
 ! R8    R(5,27)                 2.0494         estimate D2E/DX2                !
 ! R9    R(6,18)                 2.062          estimate D2E/DX2                !
 ! R10   R(7,13)                 1.4659         estimate D2E/DX2                !
 ! R11   R(7,24)                 2.2677         estimate D2E/DX2                !
 ! R12   R(8,9)                  1.4659         estimate D2E/DX2                !
 ! R13   R(8,22)                 2.214          estimate D2E/DX2                !
 ! R14   R(9,10)                 1.1028         estimate D2E/DX2                !
 ! R15   R(9,11)                 1.0991         estimate D2E/DX2                !
 ! R16   R(9,12)                 1.093          estimate D2E/DX2                !
 ! R17   R(10,20)                2.2962         estimate D2E/DX2                !
 ! R18   R(10,22)                2.3459         estimate D2E/DX2                !
 ! R19   R(11,17)                2.1643         estimate D2E/DX2                !
 ! R20   R(13,14)                1.1031         estimate D2E/DX2                !
 ! R21   R(13,15)                1.0987         estimate D2E/DX2                !
 ! R22   R(13,16)                1.093          estimate D2E/DX2                !
 ! R23   R(14,23)                2.266          estimate D2E/DX2                !
 ! R24   R(14,24)                2.3242         estimate D2E/DX2                !
 ! R25   R(15,26)                2.1756         estimate D2E/DX2                !
 ! R26   R(17,18)                0.9661         estimate D2E/DX2                !
 ! R27   R(17,19)                0.9544         estimate D2E/DX2                !
 ! R28   R(20,21)                0.9549         estimate D2E/DX2                !
 ! R29   R(20,22)                0.9608         estimate D2E/DX2                !
 ! R30   R(23,24)                0.9607         estimate D2E/DX2                !
 ! R31   R(23,25)                0.9552         estimate D2E/DX2                !
 ! R32   R(26,27)                0.9663         estimate D2E/DX2                !
 ! R33   R(26,28)                0.9543         estimate D2E/DX2                !
 ! A1    A(2,1,3)              120.2405         estimate D2E/DX2                !
 ! A2    A(1,2,4)              120.5074         estimate D2E/DX2                !
 ! A3    A(1,3,6)              122.7961         estimate D2E/DX2                !
 ! A4    A(1,3,8)              108.3205         estimate D2E/DX2                !
 ! A5    A(6,3,8)              128.4822         estimate D2E/DX2                !
 ! A6    A(2,4,5)              122.8356         estimate D2E/DX2                !
 ! A7    A(2,4,7)              108.1642         estimate D2E/DX2                !
 ! A8    A(5,4,7)              128.5458         estimate D2E/DX2                !
 ! A9    A(4,5,27)             130.6836         estimate D2E/DX2                !
 ! A10   A(3,6,18)             127.3516         estimate D2E/DX2                !
 ! A11   A(4,7,13)             117.5856         estimate D2E/DX2                !
 ! A12   A(4,7,24)             142.3575         estimate D2E/DX2                !
 ! A13   A(13,7,24)             98.2084         estimate D2E/DX2                !
 ! A14   A(3,8,9)              117.66           estimate D2E/DX2                !
 ! A15   A(3,8,22)             142.0273         estimate D2E/DX2                !
 ! A16   A(9,8,22)             100.2814         estimate D2E/DX2                !
 ! A17   A(8,9,10)             101.1137         estimate D2E/DX2                !
 ! A18   A(8,9,11)             109.8693         estimate D2E/DX2                !
 ! A19   A(8,9,12)             109.6077         estimate D2E/DX2                !
 ! A20   A(10,9,11)            112.0878         estimate D2E/DX2                !
 ! A21   A(10,9,12)            112.1422         estimate D2E/DX2                !
 ! A22   A(11,9,12)            111.5228         estimate D2E/DX2                !
 ! A23   A(9,10,20)            130.0078         estimate D2E/DX2                !
 ! A24   A(9,10,22)            106.7337         estimate D2E/DX2                !
 ! A25   A(9,11,17)            130.0864         estimate D2E/DX2                !
 ! A26   A(7,13,14)            101.1382         estimate D2E/DX2                !
 ! A27   A(7,13,15)            110.2538         estimate D2E/DX2                !
 ! A28   A(7,13,16)            109.3362         estimate D2E/DX2                !
 ! A29   A(14,13,15)           111.8859         estimate D2E/DX2                !
 ! A30   A(14,13,16)           112.2411         estimate D2E/DX2                !
 ! A31   A(15,13,16)           111.4997         estimate D2E/DX2                !
 ! A32   A(13,14,23)           132.5185         estimate D2E/DX2                !
 ! A33   A(13,14,24)           108.4398         estimate D2E/DX2                !
 ! A34   A(13,15,26)           128.7422         estimate D2E/DX2                !
 ! A35   A(11,17,18)            91.6062         estimate D2E/DX2                !
 ! A36   A(11,17,19)           137.7879         estimate D2E/DX2                !
 ! A37   A(18,17,19)           106.4747         estimate D2E/DX2                !
 ! A38   A(6,18,17)            142.4649         estimate D2E/DX2                !
 ! A39   A(10,20,21)           130.1452         estimate D2E/DX2                !
 ! A40   A(21,20,22)           106.4907         estimate D2E/DX2                !
 ! A41   A(8,22,10)             51.8481         estimate D2E/DX2                !
 ! A42   A(8,22,20)            125.7067         estimate D2E/DX2                !
 ! A43   A(14,23,25)           128.0111         estimate D2E/DX2                !
 ! A44   A(24,23,25)           106.4812         estimate D2E/DX2                !
 ! A45   A(7,24,14)             51.5558         estimate D2E/DX2                !
 ! A46   A(7,24,23)            125.4487         estimate D2E/DX2                !
 ! A47   A(15,26,27)            88.5999         estimate D2E/DX2                !
 ! A48   A(15,26,28)           138.5555         estimate D2E/DX2                !
 ! A49   A(27,26,28)           106.4529         estimate D2E/DX2                !
 ! A50   A(5,27,26)            143.9609         estimate D2E/DX2                !
 ! D1    D(3,1,2,4)           -179.8576         estimate D2E/DX2                !
 ! D2    D(2,1,3,6)           -112.3924         estimate D2E/DX2                !
 ! D3    D(2,1,3,8)             74.3178         estimate D2E/DX2                !
 ! D4    D(1,2,4,5)            108.8321         estimate D2E/DX2                !
 ! D5    D(1,2,4,7)            -78.3028         estimate D2E/DX2                !
 ! D6    D(1,3,6,18)          -141.7382         estimate D2E/DX2                !
 ! D7    D(8,3,6,18)            30.1154         estimate D2E/DX2                !
 ! D8    D(1,3,8,9)            171.0826         estimate D2E/DX2                !
 ! D9    D(1,3,8,22)            -6.3718         estimate D2E/DX2                !
 ! D10   D(6,3,8,9)             -1.7092         estimate D2E/DX2                !
 ! D11   D(6,3,8,22)          -179.1635         estimate D2E/DX2                !
 ! D12   D(2,4,5,27)          -174.2838         estimate D2E/DX2                !
 ! D13   D(7,4,5,27)            14.395          estimate D2E/DX2                !
 ! D14   D(2,4,7,13)          -169.0617         estimate D2E/DX2                !
 ! D15   D(2,4,7,24)            30.6916         estimate D2E/DX2                !
 ! D16   D(5,4,7,13)             3.2701         estimate D2E/DX2                !
 ! D17   D(5,4,7,24)          -156.9766         estimate D2E/DX2                !
 ! D18   D(4,5,27,26)           11.1176         estimate D2E/DX2                !
 ! D19   D(3,6,18,17)            1.0947         estimate D2E/DX2                !
 ! D20   D(4,7,13,14)         -175.341          estimate D2E/DX2                !
 ! D21   D(4,7,13,15)          -56.812          estimate D2E/DX2                !
 ! D22   D(4,7,13,16)           66.1093         estimate D2E/DX2                !
 ! D23   D(24,7,13,14)          -7.3782         estimate D2E/DX2                !
 ! D24   D(24,7,13,15)         111.1508         estimate D2E/DX2                !
 ! D25   D(24,7,13,16)        -125.9279         estimate D2E/DX2                !
 ! D26   D(4,7,24,14)          166.762          estimate D2E/DX2                !
 ! D27   D(4,7,24,23)          177.4034         estimate D2E/DX2                !
 ! D28   D(13,7,24,14)           4.3789         estimate D2E/DX2                !
 ! D29   D(13,7,24,23)          15.0203         estimate D2E/DX2                !
 ! D30   D(3,8,9,10)          -179.8247         estimate D2E/DX2                !
 ! D31   D(3,8,9,11)           -61.2398         estimate D2E/DX2                !
 ! D32   D(3,8,9,12)            61.6378         estimate D2E/DX2                !
 ! D33   D(22,8,9,10)           -1.4163         estimate D2E/DX2                !
 ! D34   D(22,8,9,11)          117.1687         estimate D2E/DX2                !
 ! D35   D(22,8,9,12)         -119.9538         estimate D2E/DX2                !
 ! D36   D(3,8,22,10)          178.5393         estimate D2E/DX2                !
 ! D37   D(3,8,22,20)         -166.3629         estimate D2E/DX2                !
 ! D38   D(9,8,22,10)            0.8307         estimate D2E/DX2                !
 ! D39   D(9,8,22,20)           15.9285         estimate D2E/DX2                !
 ! D40   D(8,9,10,20)           -4.6719         estimate D2E/DX2                !
 ! D41   D(8,9,10,22)            1.3733         estimate D2E/DX2                !
 ! D42   D(11,9,10,20)        -121.6418         estimate D2E/DX2                !
 ! D43   D(11,9,10,22)        -115.5966         estimate D2E/DX2                !
 ! D44   D(12,9,10,20)         112.0176         estimate D2E/DX2                !
 ! D45   D(12,9,10,22)         118.0628         estimate D2E/DX2                !
 ! D46   D(8,9,11,17)           95.1621         estimate D2E/DX2                !
 ! D47   D(10,9,11,17)        -153.255          estimate D2E/DX2                !
 ! D48   D(12,9,11,17)         -26.5792         estimate D2E/DX2                !
 ! D49   D(9,10,20,21)         -89.566          estimate D2E/DX2                !
 ! D50   D(9,10,22,8)           -1.1346         estimate D2E/DX2                !
 ! D51   D(9,11,17,18)         -44.8194         estimate D2E/DX2                !
 ! D52   D(9,11,17,19)        -161.7663         estimate D2E/DX2                !
 ! D53   D(7,13,14,23)           5.9031         estimate D2E/DX2                !
 ! D54   D(7,13,14,24)           7.5115         estimate D2E/DX2                !
 ! D55   D(15,13,14,23)       -111.4401         estimate D2E/DX2                !
 ! D56   D(15,13,14,24)       -109.8317         estimate D2E/DX2                !
 ! D57   D(16,13,14,23)        122.3332         estimate D2E/DX2                !
 ! D58   D(16,13,14,24)        123.9416         estimate D2E/DX2                !
 ! D59   D(7,13,15,26)          99.9632         estimate D2E/DX2                !
 ! D60   D(14,13,15,26)       -148.3132         estimate D2E/DX2                !
 ! D61   D(16,13,15,26)        -21.6833         estimate D2E/DX2                !
 ! D62   D(13,14,23,25)       -100.4535         estimate D2E/DX2                !
 ! D63   D(13,14,24,7)          -6.0768         estimate D2E/DX2                !
 ! D64   D(13,15,26,27)        -55.9321         estimate D2E/DX2                !
 ! D65   D(13,15,26,28)       -169.5322         estimate D2E/DX2                !
 ! D66   D(11,17,18,6)         -12.7723         estimate D2E/DX2                !
 ! D67   D(19,17,18,6)         128.577          estimate D2E/DX2                !
 ! D68   D(10,20,21,22)         92.0406         estimate D2E/DX2                !
 ! D69   D(21,20,22,8)         117.097          estimate D2E/DX2                !
 ! D70   D(14,23,24,25)       -127.1952         estimate D2E/DX2                !
 ! D71   D(25,23,24,7)         118.5652         estimate D2E/DX2                !
 ! D72   D(15,26,27,5)          -9.2252         estimate D2E/DX2                !
 ! D73   D(28,26,27,5)         131.5451         estimate D2E/DX2                !
 --------------------------------------------------------------------------------
 Trust Radius=3.00D-01 FncErr=1.00D-07 GrdErr=1.00D-07
 Number of steps in this run=    166 maximum allowed number of steps=    168.
 GradGradGradGradGradGradGradGradGradGradGradGradGradGradGradGradGradGrad

                          Input orientation:                          
 ---------------------------------------------------------------------
 Center     Atomic      Atomic             Coordinates (Angstroms)
 Number     Number       Type             X           Y           Z
 ---------------------------------------------------------------------
      1          7           0        0.396317   -0.249421    0.254206
      2          7           0       -0.366075    0.242278   -0.577003
      3          6           0        1.807042   -0.499019   -0.089093
      4          6           0       -1.776217    0.497098   -0.239209
      5          8           0       -2.220447    1.605857   -0.083354
      6          8           0        2.268108   -1.607175   -0.188016
      7          8           0       -2.444615   -0.677277   -0.305400
      8          8           0        2.456144    0.687726   -0.109351
      9          6           0        3.916588    0.662529   -0.232710
     10          1           0        4.149790    1.740254   -0.217868
     11          1           0        4.354830    0.133002    0.624920
     12          1           0        4.196687    0.193417   -1.179377
     13          6           0       -3.908611   -0.629280   -0.248015
     14          1           0       -4.156652   -1.704021   -0.233693
     15          1           0       -4.236856   -0.120933    0.669089
     16          1           0       -4.289615   -0.128634   -1.141815
     17          8           0        4.952295   -1.937359    0.827404
     18          1           0        4.137874   -2.241885    0.406233
     19          1           0        5.139416   -2.553462    1.531932
     20          8           0        2.742982    3.554713   -0.185707
     21          1           0        2.358495    4.048517   -0.906977
     22          1           0        2.110061    2.869147    0.043402
     23          8           0       -2.876782   -3.569521   -0.104207
     24          1           0       -2.182390   -2.911341   -0.017766
     25          1           0       -2.611753   -4.151467   -0.813789
     26          8           0       -4.907340    1.933263    0.921641
     27          1           0       -4.073087    2.228299    0.533302
     28          1           0       -5.104061    2.539323    1.632066
 ---------------------------------------------------------------------
                    Distance matrix (angstroms):
                    1          2          3          4          5
     1  N    0.000000
     2  N    1.230414   0.000000
     3  C    1.473193   2.347342   0.000000
     4  C    2.349607   1.472256   3.722167   0.000000
     5  O    3.225439   2.354088   4.544360   1.204565   0.000000
     6  O    2.354285   3.242022   1.204316   4.559293   5.521019
     7  O    2.926963   2.289034   4.260886   1.352884   2.304833
     8  O    2.292009   2.895176   1.352815   4.238642   4.765936
     9  C    3.668930   4.316984   2.412468   5.695212   6.210908
    10  H    4.274368   4.771367   3.243362   6.055035   6.373074
    11  H    3.994183   4.872731   2.720384   6.202340   6.775339
    12  H    4.085839   4.602612   2.716356   6.054066   6.661521
    13  C    4.350738   3.662978   5.719346   2.411620   2.805860
    14  H    4.804522   4.274859   6.085933   3.242133   3.837549
    15  H    4.653486   4.082599   6.102990   2.694756   2.759326
    16  H    4.890953   3.981301   6.197954   2.742883   2.900044
    17  O    4.892303   5.916776   3.577905   7.234440   8.051838
    18  H    4.241730   5.236733   2.952238   6.549435   7.448024
    19  H    5.425696   6.524891   4.237119   7.763301   8.606780
    20  O    4.491302   4.559778   4.161497   5.456650   5.333305
    21  H    4.865260   4.692507   4.653291   5.491296   5.254679
    22  H    3.564663   3.662867   3.384364   4.561759   4.512789
    23  O    4.675971   4.588790   5.600573   4.215075   5.216871
    24  H    3.716116   3.681991   4.662612   3.439690   4.517834
    25  H    5.041335   4.940054   5.778521   4.757880   5.816652
    26  O    5.773938   5.072322   7.212524   3.635117   2.887318
    27  H    5.117867   4.349597   6.511648   2.978161   2.049384
    28  H    6.318999   5.710071   7.743207   4.329769   3.482708
                    6          7          8          9         10
     6  O    0.000000
     7  O    4.805023   0.000000
     8  O    2.303935   5.091081   0.000000
     9  C    2.805537   6.501174   1.465861   0.000000
    10  H    3.840169   7.024122   1.997005   1.102767   0.000000
    11  H    2.836105   6.910463   2.109948   1.099083   1.826360
    12  H    2.818571   6.754912   2.102091   1.093023   1.821923
    13  C    6.253938   1.465906   6.501064   7.931125   8.399609
    14  H    6.425652   1.997603   7.033135   8.412952   8.992233
    15  H    6.727414   2.114539   6.786468   8.240492   8.636350
    16  H    6.789665   2.098720   6.872968   8.294226   8.693099
    17  O    2.888764   7.588500   3.741571   2.992649   3.906590
    18  H    2.062041   6.803204   3.417113   2.982086   4.030766
    19  H    3.478231   8.025795   4.516532   3.866765   4.741008
    20  O    5.183686   6.695911   2.882312   3.121584   2.296172
    21  H    5.701923   6.764975   3.455526   3.787770   3.001947
    22  H    4.485085   5.783067   2.213979   2.865125   2.345881
    23  O    5.507061   2.931266   6.823802   8.004788   8.807914
    24  H    4.640772   2.267716   5.871769   7.072219   7.859636
    25  H    5.538778   3.515166   7.042556   8.132124   8.988101
    26  O    8.077939   3.792830   7.538913   8.989382   9.130572
    27  H    7.445933   3.434780   6.739230   8.177611   8.271526
    28  H    8.651880   4.601407   7.976067   9.400630   9.470719
                   11         12         13         14         15
    11  H    0.000000
    12  H    1.812222   0.000000
    13  C    8.344312   8.200007   0.000000
    14  H    8.749697   8.618170   1.103086   0.000000
    15  H    8.595551   8.639461   1.098745   1.824175   0.000000
    16  H    8.827017   8.492494   1.093018   1.823241   1.811689
    17  O    2.164338   3.022965   9.021267   9.173510   9.368296
    18  H    2.394782   2.906598   8.232524   8.336544   8.643126
    19  H    2.941995   3.973069   9.420057   9.500309   9.725028
    20  O    3.868239   3.794595   7.858331   8.675341   7.934683
    21  H    4.654387   4.279597   7.848097   8.717347   7.960336
    22  H    3.586592   3.606761   6.967663   7.762882   7.043821
    23  O    8.156992   8.083913   3.119354   2.266037   3.786891
    24  H    7.239911   7.188984   2.870654   2.324211   3.532560
    25  H    8.304206   8.084957   3.795753   2.951816   4.591851
    26  O    9.440168   9.503928   2.988676   3.889494   2.175558
    27  H    8.684955   8.686954   2.967030   4.007294   2.358845
    28  H    9.812000   9.995569   3.873480   4.731238   2.959110
                   16         17         18         19         20
    16  H    0.000000
    17  O    9.620926   0.000000
    18  H    8.825240   0.966128   0.000000
    19  H   10.096303   0.954441   1.538624   0.000000
    20  O    7.996162   6.005857   5.991383   6.782550   0.000000
    21  H    7.855005   6.750303   6.667823   7.567557   0.954936
    22  H    7.165702   5.638746   5.510564   6.387284   0.960771
    23  O    3.861662   8.051478   7.157413   8.244317   9.074310
    24  H    3.667062   7.250288   6.369748   7.492562   8.130028
    25  H    4.371042   8.050504   7.119861   8.254493   9.404939
    26  O    2.981754  10.592592   9.975640  11.020003   7.898275
    27  H    2.899661   9.944683   9.349790  10.427498   6.981056
    28  H    3.933921  11.037140  10.477403  11.440075   8.118584
                   21         22         23         24         25
    21  H    0.000000
    22  H    1.534879   0.000000
    23  O    9.278312   8.145357   0.000000
    24  H    8.357629   7.200203   0.960652   0.000000
    25  H    9.589149   8.504077   0.955201   1.534900   0.000000
    26  O    7.785275   7.133800   5.954508   5.637200   6.730927
    27  H    6.837605   6.235544   5.954182   5.504027   6.682183
    28  H    8.025843   7.394335   6.730036   6.400613   7.547216
                   26         27         28
    26  O    0.000000
    27  H    0.966350   0.000000
    28  H    0.954312   1.538482   0.000000
 Stoichiometry    C4H14N2O8
 Framework group  C1[X(C4H14N2O8)]
 Deg. of freedom    78
 Full point group                 C1      NOp   1
 Largest Abelian subgroup         C1      NOp   1
 Largest concise Abelian subgroup C1      NOp   1
                         Standard orientation:                         
 ---------------------------------------------------------------------
 Center     Atomic      Atomic             Coordinates (Angstroms)
 Number     Number       Type             X           Y           Z
 ---------------------------------------------------------------------
      1          7           0       -0.396317    0.249421    0.254206
      2          7           0        0.366075   -0.242278   -0.577003
      3          6           0       -1.807042    0.499019   -0.089093
      4          6           0        1.776217   -0.497098   -0.239209
      5          8           0        2.220447   -1.605857   -0.083354
      6          8           0       -2.268108    1.607175   -0.188016
      7          8           0        2.444615    0.677277   -0.305400
      8          8           0       -2.456144   -0.687726   -0.109351
      9          6           0       -3.916588   -0.662529   -0.232710
     10          1           0       -4.149790   -1.740254   -0.217868
     11          1           0       -4.354830   -0.133002    0.624920
     12          1           0       -4.196687   -0.193417   -1.179377
     13          6           0        3.908611    0.629280   -0.248015
     14          1           0        4.156652    1.704021   -0.233693
     15          1           0        4.236856    0.120933    0.669089
     16          1           0        4.289615    0.128634   -1.141815
     17          8           0       -4.952295    1.937359    0.827404
     18          1           0       -4.137874    2.241885    0.406233
     19          1           0       -5.139416    2.553462    1.531932
     20          8           0       -2.742982   -3.554713   -0.185707
     21          1           0       -2.358495   -4.048517   -0.906977
     22          1           0       -2.110061   -2.869147    0.043402
     23          8           0        2.876782    3.569521   -0.104207
     24          1           0        2.182390    2.911341   -0.017766
     25          1           0        2.611753    4.151467   -0.813789
     26          8           0        4.907340   -1.933263    0.921641
     27          1           0        4.073087   -2.228299    0.533302
     28          1           0        5.104061   -2.539323    1.632066
 ---------------------------------------------------------------------
 Rotational constants (GHZ):      0.6590861      0.2412476      0.1824732
 Standard basis: VSTO-6G (5D, 7F)
 There are    70 symmetry adapted cartesian basis functions of A   symmetry.
 There are    70 symmetry adapted basis functions of A   symmetry.
    70 basis functions,   420 primitive gaussians,    70 cartesian basis functions
    44 alpha electrons       44 beta electrons
       nuclear repulsion energy       607.6829497616 Hartrees.
 Integral buffers will be    131072 words long.
 Regular integral format.
 Two-electron integral symmetry is turned off.
 Nuclear repulsion after empirical dispersion term =      607.6766281402 Hartrees.
 ------------------------------------------------------------------------------
 Polarizable Continuum Model (PCM)
 =================================
 Model                : C-PCM.
 Atomic radii         : UFF (Universal Force Field).
 Polarization charges : Total charges.
 Charge compensation  : None.
 Solution method      : On-the-fly selection.
 Cavity type          : Scaled VdW (van der Waals Surface) (Alpha=1.100).
 Cavity algorithm     : GePol (No added spheres)
                        Default sphere list used, NSphG=   28.
                        Lebedev-Laikov grids with approx.  5.0 points / Ang**2.
                        Smoothing algorithm: Karplus/York (Gamma=1.0000).
                        Polarization charges: spherical gaussians, with
                                              point-specific exponents (IZeta= 3).
                        Self-potential: point-specific (ISelfS= 7).
                        Self-field    : sphere-specific E.n sum rule (ISelfD= 2).
 1st derivatives      : Analytical E(r).r(x)/FMM algorithm (CHGder, D1EAlg=3).
                        Cavity 1st derivative terms included.
 Solvent              : Water, Eps=  78.355300 Eps(inf)=   1.777849
 ------------------------------------------------------------------------------
 Do NDO integrals.
 One-electron integrals computed using PRISM.
 NBasis=    70 RedAO= F EigKep=  0.00D+00  NBF=    70
 NBsUse=    70 1.00D-04 EigRej=  0.00D+00 NBFU=    70
 Simple Huckel Guess.
 Overlap will be assumed to be unity.
 Keep J ints in memory in canonical form, NReq=10212585.
 Requested convergence on RMS density matrix=1.00D-08 within 128 cycles.
 Requested convergence on MAX density matrix=1.00D-06.
 Requested convergence on             energy=1.00D-06.
 No special actions if energy rises.
 Inv3:  Mode=1 IEnd=    19768467.
 Iteration    1 A*A^-1 deviation from unit magnitude is 1.25D-14 for   2554.
 Iteration    1 A*A^-1 deviation from orthogonality  is 3.05D-15 for   2554    945.
 Iteration    1 A^-1*A deviation from unit magnitude is 1.25D-14 for   2554.
 Iteration    1 A^-1*A deviation from orthogonality  is 3.50D-15 for   2562   2097.
 Error on total polarization charges = -0.00044
 SCF Done:  E(RPM6D3) = -0.572323557342     A.U. after   16 cycles
            NFock= 15  Conv=0.41D-08     -V/T= 0.9888

 **********************************************************************

            Population analysis using the SCF density.

 **********************************************************************

 Orbital symmetries:
       Occupied  (A) (A) (A) (A) (A) (A) (A) (A) (A) (A) (A) (A)
                 (A) (A) (A) (A) (A) (A) (A) (A) (A) (A) (A) (A)
                 (A) (A) (A) (A) (A) (A) (A) (A) (A) (A) (A) (A)
                 (A) (A) (A) (A) (A) (A) (A) (A)
       Virtual   (A) (A) (A) (A) (A) (A) (A) (A) (A) (A) (A) (A)
                 (A) (A) (A) (A) (A) (A) (A) (A) (A) (A) (A) (A)
                 (A) (A)
 The electronic state is 1-A.
 Alpha  occ. eigenvalues --   -1.33443  -1.22880  -1.22025  -1.17472  -1.17012
 Alpha  occ. eigenvalues --   -1.11213  -1.11186  -1.10878  -1.10824  -1.05025
 Alpha  occ. eigenvalues --   -0.97300  -0.92307  -0.84279  -0.77365  -0.72769
 Alpha  occ. eigenvalues --   -0.70177  -0.69608  -0.69562  -0.69096  -0.67384
 Alpha  occ. eigenvalues --   -0.66113  -0.65017  -0.63735  -0.61544  -0.57412
 Alpha  occ. eigenvalues --   -0.57100  -0.56653  -0.55210  -0.54951  -0.53408
 Alpha  occ. eigenvalues --   -0.53258  -0.52897  -0.52798  -0.50601  -0.50475
 Alpha  occ. eigenvalues --   -0.46993  -0.46746  -0.45418  -0.45333  -0.44498
 Alpha  occ. eigenvalues --   -0.44446  -0.43987  -0.43936  -0.39041
 Alpha virt. eigenvalues --   -0.06813  -0.03578  -0.02046  -0.00658   0.02036
 Alpha virt. eigenvalues --    0.04599   0.08135   0.08499   0.09231   0.12793
 Alpha virt. eigenvalues --    0.12985   0.13100   0.14988   0.15035   0.15353
 Alpha virt. eigenvalues --    0.15423   0.18305   0.18326   0.18641   0.18656
 Alpha virt. eigenvalues --    0.20065   0.20071   0.22154   0.22187   0.22391
 Alpha virt. eigenvalues --    0.22428
          Condensed to atoms (all electrons):
               1          2          3          4          5          6
     1  N    5.122928   0.000000   0.000000   0.000000   0.000000   0.000000
     2  N    0.000000   5.122295   0.000000   0.000000   0.000000   0.000000
     3  C    0.000000   0.000000   3.323206   0.000000   0.000000   0.000000
     4  C    0.000000   0.000000   0.000000   3.322890   0.000000   0.000000
     5  O    0.000000   0.000000   0.000000   0.000000   6.494819   0.000000
     6  O    0.000000   0.000000   0.000000   0.000000   0.000000   6.492183
     7  O    0.000000   0.000000   0.000000   0.000000   0.000000   0.000000
     8  O    0.000000   0.000000   0.000000   0.000000   0.000000   0.000000
     9  C    0.000000   0.000000   0.000000   0.000000   0.000000   0.000000
    10  H    0.000000   0.000000   0.000000   0.000000   0.000000   0.000000
    11  H    0.000000   0.000000   0.000000   0.000000   0.000000   0.000000
    12  H    0.000000   0.000000   0.000000   0.000000   0.000000   0.000000
    13  C    0.000000   0.000000   0.000000   0.000000   0.000000   0.000000
    14  H    0.000000   0.000000   0.000000   0.000000   0.000000   0.000000
    15  H    0.000000   0.000000   0.000000   0.000000   0.000000   0.000000
    16  H    0.000000   0.000000   0.000000   0.000000   0.000000   0.000000
    17  O    0.000000   0.000000   0.000000   0.000000   0.000000   0.000000
    18  H    0.000000   0.000000   0.000000   0.000000   0.000000   0.000000
    19  H    0.000000   0.000000   0.000000   0.000000   0.000000   0.000000
    20  O    0.000000   0.000000   0.000000   0.000000   0.000000   0.000000
    21  H    0.000000   0.000000   0.000000   0.000000   0.000000   0.000000
    22  H    0.000000   0.000000   0.000000   0.000000   0.000000   0.000000
    23  O    0.000000   0.000000   0.000000   0.000000   0.000000   0.000000
    24  H    0.000000   0.000000   0.000000   0.000000   0.000000   0.000000
    25  H    0.000000   0.000000   0.000000   0.000000   0.000000   0.000000
    26  O    0.000000   0.000000   0.000000   0.000000   0.000000   0.000000
    27  H    0.000000   0.000000   0.000000   0.000000   0.000000   0.000000
    28  H    0.000000   0.000000   0.000000   0.000000   0.000000   0.000000
               7          8          9         10         11         12
     1  N    0.000000   0.000000   0.000000   0.000000   0.000000   0.000000
     2  N    0.000000   0.000000   0.000000   0.000000   0.000000   0.000000
     3  C    0.000000   0.000000   0.000000   0.000000   0.000000   0.000000
     4  C    0.000000   0.000000   0.000000   0.000000   0.000000   0.000000
     5  O    0.000000   0.000000   0.000000   0.000000   0.000000   0.000000
     6  O    0.000000   0.000000   0.000000   0.000000   0.000000   0.000000
     7  O    6.394214   0.000000   0.000000   0.000000   0.000000   0.000000
     8  O    0.000000   6.396807   0.000000   0.000000   0.000000   0.000000
     9  C    0.000000   0.000000   4.184635   0.000000   0.000000   0.000000
    10  H    0.000000   0.000000   0.000000   0.812914   0.000000   0.000000
    11  H    0.000000   0.000000   0.000000   0.000000   0.823634   0.000000
    12  H    0.000000   0.000000   0.000000   0.000000   0.000000   0.839197
    13  C    0.000000   0.000000   0.000000   0.000000   0.000000   0.000000
    14  H    0.000000   0.000000   0.000000   0.000000   0.000000   0.000000
    15  H    0.000000   0.000000   0.000000   0.000000   0.000000   0.000000
    16  H    0.000000   0.000000   0.000000   0.000000   0.000000   0.000000
    17  O    0.000000   0.000000   0.000000   0.000000   0.000000   0.000000
    18  H    0.000000   0.000000   0.000000   0.000000   0.000000   0.000000
    19  H    0.000000   0.000000   0.000000   0.000000   0.000000   0.000000
    20  O    0.000000   0.000000   0.000000   0.000000   0.000000   0.000000
    21  H    0.000000   0.000000   0.000000   0.000000   0.000000   0.000000
    22  H    0.000000   0.000000   0.000000   0.000000   0.000000   0.000000
    23  O    0.000000   0.000000   0.000000   0.000000   0.000000   0.000000
    24  H    0.000000   0.000000   0.000000   0.000000   0.000000   0.000000
    25  H    0.000000   0.000000   0.000000   0.000000   0.000000   0.000000
    26  O    0.000000   0.000000   0.000000   0.000000   0.000000   0.000000
    27  H    0.000000   0.000000   0.000000   0.000000   0.000000   0.000000
    28  H    0.000000   0.000000   0.000000   0.000000   0.000000   0.000000
              13         14         15         16         17         18
     1  N    0.000000   0.000000   0.000000   0.000000   0.000000   0.000000
     2  N    0.000000   0.000000   0.000000   0.000000   0.000000   0.000000
     3  C    0.000000   0.000000   0.000000   0.000000   0.000000   0.000000
     4  C    0.000000   0.000000   0.000000   0.000000   0.000000   0.000000
     5  O    0.000000   0.000000   0.000000   0.000000   0.000000   0.000000
     6  O    0.000000   0.000000   0.000000   0.000000   0.000000   0.000000
     7  O    0.000000   0.000000   0.000000   0.000000   0.000000   0.000000
     8  O    0.000000   0.000000   0.000000   0.000000   0.000000   0.000000
     9  C    0.000000   0.000000   0.000000   0.000000   0.000000   0.000000
    10  H    0.000000   0.000000   0.000000   0.000000   0.000000   0.000000
    11  H    0.000000   0.000000   0.000000   0.000000   0.000000   0.000000
    12  H    0.000000   0.000000   0.000000   0.000000   0.000000   0.000000
    13  C    4.185639   0.000000   0.000000   0.000000   0.000000   0.000000
    14  H    0.000000   0.812067   0.000000   0.000000   0.000000   0.000000
    15  H    0.000000   0.000000   0.824963   0.000000   0.000000   0.000000
    16  H    0.000000   0.000000   0.000000   0.838463   0.000000   0.000000
    17  O    0.000000   0.000000   0.000000   0.000000   6.669789   0.000000
    18  H    0.000000   0.000000   0.000000   0.000000   0.000000   0.663289
    19  H    0.000000   0.000000   0.000000   0.000000   0.000000   0.000000
    20  O    0.000000   0.000000   0.000000   0.000000   0.000000   0.000000
    21  H    0.000000   0.000000   0.000000   0.000000   0.000000   0.000000
    22  H    0.000000   0.000000   0.000000   0.000000   0.000000   0.000000
    23  O    0.000000   0.000000   0.000000   0.000000   0.000000   0.000000
    24  H    0.000000   0.000000   0.000000   0.000000   0.000000   0.000000
    25  H    0.000000   0.000000   0.000000   0.000000   0.000000   0.000000
    26  O    0.000000   0.000000   0.000000   0.000000   0.000000   0.000000
    27  H    0.000000   0.000000   0.000000   0.000000   0.000000   0.000000
    28  H    0.000000   0.000000   0.000000   0.000000   0.000000   0.000000
              19         20         21         22         23         24
     1  N    0.000000   0.000000   0.000000   0.000000   0.000000   0.000000
     2  N    0.000000   0.000000   0.000000   0.000000   0.000000   0.000000
     3  C    0.000000   0.000000   0.000000   0.000000   0.000000   0.000000
     4  C    0.000000   0.000000   0.000000   0.000000   0.000000   0.000000
     5  O    0.000000   0.000000   0.000000   0.000000   0.000000   0.000000
     6  O    0.000000   0.000000   0.000000   0.000000   0.000000   0.000000
     7  O    0.000000   0.000000   0.000000   0.000000   0.000000   0.000000
     8  O    0.000000   0.000000   0.000000   0.000000   0.000000   0.000000
     9  C    0.000000   0.000000   0.000000   0.000000   0.000000   0.000000
    10  H    0.000000   0.000000   0.000000   0.000000   0.000000   0.000000
    11  H    0.000000   0.000000   0.000000   0.000000   0.000000   0.000000
    12  H    0.000000   0.000000   0.000000   0.000000   0.000000   0.000000
    13  C    0.000000   0.000000   0.000000   0.000000   0.000000   0.000000
    14  H    0.000000   0.000000   0.000000   0.000000   0.000000   0.000000
    15  H    0.000000   0.000000   0.000000   0.000000   0.000000   0.000000
    16  H    0.000000   0.000000   0.000000   0.000000   0.000000   0.000000
    17  O    0.000000   0.000000   0.000000   0.000000   0.000000   0.000000
    18  H    0.000000   0.000000   0.000000   0.000000   0.000000   0.000000
    19  H    0.670965   0.000000   0.000000   0.000000   0.000000   0.000000
    20  O    0.000000   6.662213   0.000000   0.000000   0.000000   0.000000
    21  H    0.000000   0.000000   0.670514   0.000000   0.000000   0.000000
    22  H    0.000000   0.000000   0.000000   0.667909   0.000000   0.000000
    23  O    0.000000   0.000000   0.000000   0.000000   6.661558   0.000000
    24  H    0.000000   0.000000   0.000000   0.000000   0.000000   0.668457
    25  H    0.000000   0.000000   0.000000   0.000000   0.000000   0.000000
    26  O    0.000000   0.000000   0.000000   0.000000   0.000000   0.000000
    27  H    0.000000   0.000000   0.000000   0.000000   0.000000   0.000000
    28  H    0.000000   0.000000   0.000000   0.000000   0.000000   0.000000
              25         26         27         28
     1  N    0.000000   0.000000   0.000000   0.000000
     2  N    0.000000   0.000000   0.000000   0.000000
     3  C    0.000000   0.000000   0.000000   0.000000
     4  C    0.000000   0.000000   0.000000   0.000000
     5  O    0.000000   0.000000   0.000000   0.000000
     6  O    0.000000   0.000000   0.000000   0.000000
     7  O    0.000000   0.000000   0.000000   0.000000
     8  O    0.000000   0.000000   0.000000   0.000000
     9  C    0.000000   0.000000   0.000000   0.000000
    10  H    0.000000   0.000000   0.000000   0.000000
    11  H    0.000000   0.000000   0.000000   0.000000
    12  H    0.000000   0.000000   0.000000   0.000000
    13  C    0.000000   0.000000   0.000000   0.000000
    14  H    0.000000   0.000000   0.000000   0.000000
    15  H    0.000000   0.000000   0.000000   0.000000
    16  H    0.000000   0.000000   0.000000   0.000000
    17  O    0.000000   0.000000   0.000000   0.000000
    18  H    0.000000   0.000000   0.000000   0.000000
    19  H    0.000000   0.000000   0.000000   0.000000
    20  O    0.000000   0.000000   0.000000   0.000000
    21  H    0.000000   0.000000   0.000000   0.000000
    22  H    0.000000   0.000000   0.000000   0.000000
    23  O    0.000000   0.000000   0.000000   0.000000
    24  H    0.000000   0.000000   0.000000   0.000000
    25  H    0.670020   0.000000   0.000000   0.000000
    26  O    0.000000   6.670302   0.000000   0.000000
    27  H    0.000000   0.000000   0.662858   0.000000
    28  H    0.000000   0.000000   0.000000   0.671275
 Mulliken charges:
               1
     1  N   -0.122928
     2  N   -0.122295
     3  C    0.676794
     4  C    0.677110
     5  O   -0.494819
     6  O   -0.492183
     7  O   -0.394214
     8  O   -0.396807
     9  C   -0.184635
    10  H    0.187086
    11  H    0.176366
    12  H    0.160803
    13  C   -0.185639
    14  H    0.187933
    15  H    0.175037
    16  H    0.161537
    17  O   -0.669789
    18  H    0.336711
    19  H    0.329035
    20  O   -0.662213
    21  H    0.329486
    22  H    0.332091
    23  O   -0.661558
    24  H    0.331543
    25  H    0.329980
    26  O   -0.670302
    27  H    0.337142
    28  H    0.328725
 Sum of Mulliken charges =   0.00000
 Mulliken charges with hydrogens summed into heavy atoms:
               1
     1  N   -0.122928
     2  N   -0.122295
     3  C    0.676794
     4  C    0.677110
     5  O   -0.494819
     6  O   -0.492183
     7  O   -0.394214
     8  O   -0.396807
     9  C    0.339621
    13  C    0.338869
    17  O   -0.004043
    20  O   -0.000636
    23  O   -0.000035
    26  O   -0.004435
 Charge=              0.0000 electrons
 Dipole moment (field-independent basis, Debye):
    X=              0.1207    Y=              0.2593    Z=             -1.2049  Tot=              1.2384
 N-N= 6.076766281402D+02 E-N=-1.101640560390D+03  KE=-5.122372967702D+01
 D1PCM: C-PCM CHGder 1st derivatives, ID1Alg=3 FixD1E=F DoIter=F DoCFld=F I1PDM=0.
 Calling FoFJK, ICntrl=      2127 FMM=F ISym2X=0 I1Cent= 0 IOpClX= 0 NMat=1 NMatS=1 NMatT=0.
 ***** Axes restored to original set *****
 -------------------------------------------------------------------
 Center     Atomic                   Forces (Hartrees/Bohr)
 Number     Number              X              Y              Z
 -------------------------------------------------------------------
      1        7          -0.000105847   -0.000439885   -0.000265714
      2        7           0.000105806    0.000430281    0.000337287
      3        6          -0.000553453    0.001886631   -0.000171752
      4        6           0.000479777   -0.001988485   -0.000339572
      5        8          -0.000563398    0.001185701    0.000055754
      6        8           0.000530964   -0.001101872    0.000095509
      7        8          -0.000056833    0.000623296    0.000339121
      8        8           0.000111740   -0.000593769    0.000112071
      9        6          -0.000040351   -0.000022656    0.000265054
     10        1           0.000083043   -0.000410403   -0.000105357
     11        1          -0.000168476    0.000288378   -0.000166999
     12        1           0.000058107    0.000107663   -0.000291483
     13        6           0.000103412    0.000049544    0.000369889
     14        1          -0.000029351    0.000368214   -0.000185000
     15        1           0.000165346   -0.000261509   -0.000202814
     16        1          -0.000063560   -0.000126249   -0.000308857
     17        8           0.000598380    0.000886682   -0.000902951
     18        1          -0.000277422   -0.000190340    0.000214452
     19        1          -0.000028769   -0.000966352    0.000878376
     20        8           0.001050481    0.000298044    0.001127044
     21        1          -0.000670879    0.000410312   -0.000970941
     22        1          -0.000587344   -0.000402580   -0.000077995
     23        8          -0.000948403   -0.000115271    0.001510457
     24        1           0.000536596    0.000292937   -0.000442163
     25        1           0.000549176   -0.000476943   -0.001110593
     26        8          -0.000580702   -0.000885638   -0.000859646
     27        1           0.000276077    0.000176261    0.000181455
     28        1           0.000025884    0.000978008    0.000915369
 -------------------------------------------------------------------
 Cartesian Forces:  Max     0.001988485 RMS     0.000613836

 GradGradGradGradGradGradGradGradGradGradGradGradGradGradGradGradGradGrad
 Berny optimization.
 FormGI is forming the generalized inverse of G from B-inverse, IUseBI=4.
 Internal  Forces:  Max     0.001370271 RMS     0.000295020
 Search for a local minimum.
 Step number   1 out of a maximum of  166
 All quantities printed in internal units (Hartrees-Bohrs-Radians)
 Mixed Optimization -- En-DIIS/RFO-DIIS
 Second derivative matrix not updated -- first step.
 ITU=  0
     Eigenvalues ---    0.00407   0.00443   0.00600   0.00605   0.00724
     Eigenvalues ---    0.00736   0.00816   0.00866   0.00995   0.01036
     Eigenvalues ---    0.01444   0.01612   0.02494   0.02657   0.02753
     Eigenvalues ---    0.02758   0.03102   0.03117   0.03538   0.03661
     Eigenvalues ---    0.03722   0.04137   0.04222   0.04337   0.04447
     Eigenvalues ---    0.04810   0.05003   0.05590   0.05676   0.05897
     Eigenvalues ---    0.06293   0.06422   0.06535   0.07117   0.07247
     Eigenvalues ---    0.07863   0.08631   0.09940   0.10399   0.10983
     Eigenvalues ---    0.11515   0.11973   0.12314   0.14245   0.14268
     Eigenvalues ---    0.17178   0.17374   0.20489   0.20542   0.21828
     Eigenvalues ---    0.22604   0.24895   0.24906   0.25000   0.25000
     Eigenvalues ---    0.31227   0.31403   0.31806   0.31901   0.33026
     Eigenvalues ---    0.33077   0.34466   0.34466   0.35361   0.35472
     Eigenvalues ---    0.52319   0.52385   0.52795   0.53569   0.53685
     Eigenvalues ---    0.53691   0.56519   0.56577   0.56687   0.56715
     Eigenvalues ---    0.90914   0.98184   0.98563
 RFO step:  Lambda=-8.22615942D-05 EMin= 4.06826187D-03
 Linear search not attempted -- first point.
 Iteration  1 RMS(Cart)=  0.03755766 RMS(Int)=  0.00024595
 Iteration  2 RMS(Cart)=  0.00057792 RMS(Int)=  0.00000360
 Iteration  3 RMS(Cart)=  0.00000009 RMS(Int)=  0.00000360
 Variable       Old X    -DE/DX   Delta X   Delta X   Delta X     New X
                                 (Linear)    (Quad)   (Total)
    R1        2.32514  -0.00005   0.00000  -0.00005  -0.00005   2.32509
    R2        2.78393   0.00008   0.00000   0.00023   0.00023   2.78416
    R3        2.78216   0.00007   0.00000   0.00019   0.00019   2.78235
    R4        2.27583   0.00128   0.00000   0.00127   0.00127   2.27710
    R5        2.55645  -0.00049   0.00000  -0.00094  -0.00094   2.55551
    R6        2.27630   0.00137   0.00000   0.00138   0.00138   2.27768
    R7        2.55658  -0.00056   0.00000  -0.00106  -0.00106   2.55552
    R8        3.87277   0.00008   0.00000   0.00368   0.00368   3.87646
    R9        3.89669   0.00013   0.00000   0.00434   0.00434   3.90103
   R10        2.77016  -0.00002   0.00000  -0.00035  -0.00035   2.76981
   R11        4.28536   0.00000   0.00000   0.00197   0.00197   4.28734
   R12        2.77008   0.00003   0.00000  -0.00007  -0.00007   2.77000
   R13        4.18381   0.00001   0.00000   0.00210   0.00210   4.18592
   R14        2.08393  -0.00012   0.00000  -0.00054  -0.00054   2.08339
   R15        2.07697  -0.00008   0.00000  -0.00024  -0.00024   2.07673
   R16        2.06551   0.00022   0.00000   0.00065   0.00065   2.06616
   R17        4.33914   0.00019   0.00000   0.00669   0.00669   4.34583
   R18        4.43307   0.00014   0.00000   0.00415   0.00415   4.43722
   R19        4.09001   0.00028   0.00000   0.00801   0.00801   4.09802
   R20        2.08453  -0.00010   0.00000  -0.00049  -0.00049   2.08404
   R21        2.07633  -0.00006   0.00000  -0.00021  -0.00022   2.07611
   R22        2.06551   0.00022   0.00000   0.00063   0.00063   2.06614
   R23        4.28219   0.00026   0.00000   0.00599   0.00600   4.28819
   R24        4.39212   0.00002   0.00000   0.00372   0.00371   4.39583
   R25        4.11121   0.00033   0.00000   0.00863   0.00863   4.11983
   R26        1.82572   0.00031   0.00000   0.00063   0.00064   1.82635
   R27        1.80363   0.00127   0.00000   0.00225   0.00225   1.80588
   R28        1.80457   0.00122   0.00000   0.00216   0.00216   1.80672
   R29        1.81559   0.00057   0.00000   0.00121   0.00121   1.81680
   R30        1.81537   0.00055   0.00000   0.00114   0.00114   1.81651
   R31        1.80507   0.00126   0.00000   0.00223   0.00223   1.80729
   R32        1.82614   0.00029   0.00000   0.00062   0.00063   1.82676
   R33        1.80339   0.00130   0.00000   0.00228   0.00228   1.80567
    A1        2.09859   0.00012   0.00000   0.00049   0.00049   2.09909
    A2        2.10325   0.00025   0.00000   0.00101   0.00101   2.10426
    A3        2.14320  -0.00008   0.00000  -0.00044  -0.00044   2.14276
    A4        1.89055   0.00027   0.00000   0.00099   0.00099   1.89154
    A5        2.24244  -0.00021   0.00000  -0.00076  -0.00077   2.24167
    A6        2.14389  -0.00002   0.00000  -0.00024  -0.00024   2.14365
    A7        1.88782   0.00023   0.00000   0.00077   0.00078   1.88860
    A8        2.24355  -0.00021   0.00000  -0.00074  -0.00074   2.24281
    A9        2.28086  -0.00001   0.00000   0.00146   0.00146   2.28231
   A10        2.22270  -0.00005   0.00000   0.00110   0.00109   2.22380
   A11        2.05226   0.00017   0.00000   0.00039   0.00039   2.05265
   A12        2.48461  -0.00016   0.00000  -0.00030  -0.00030   2.48431
   A13        1.71406   0.00001   0.00000   0.00113   0.00113   1.71519
   A14        2.05355   0.00020   0.00000   0.00050   0.00049   2.05405
   A15        2.47884  -0.00022   0.00000  -0.00138  -0.00137   2.47747
   A16        1.75024   0.00002   0.00000   0.00099   0.00099   1.75123
   A17        1.76477   0.00001   0.00000  -0.00026  -0.00026   1.76451
   A18        1.91758  -0.00001   0.00000   0.00020   0.00020   1.91778
   A19        1.91301   0.00002   0.00000   0.00046   0.00045   1.91347
   A20        1.95630  -0.00001   0.00000  -0.00099  -0.00098   1.95532
   A21        1.95725  -0.00013   0.00000  -0.00138  -0.00138   1.95587
   A22        1.94644   0.00011   0.00000   0.00181   0.00180   1.94824
   A23        2.26906   0.00013   0.00000   0.00031   0.00030   2.26937
   A24        1.86285   0.00000   0.00000   0.00021   0.00021   1.86306
   A25        2.27044   0.00021   0.00000   0.00162   0.00162   2.27206
   A26        1.76519  -0.00002   0.00000  -0.00024  -0.00024   1.76495
   A27        1.92429   0.00005   0.00000   0.00029   0.00029   1.92459
   A28        1.90828  -0.00001   0.00000   0.00004   0.00004   1.90832
   A29        1.95278   0.00001   0.00000  -0.00047  -0.00047   1.95231
   A30        1.95898  -0.00014   0.00000  -0.00161  -0.00161   1.95737
   A31        1.94604   0.00010   0.00000   0.00180   0.00180   1.94784
   A32        2.31288   0.00017   0.00000   0.00049   0.00048   2.31337
   A33        1.89263   0.00004   0.00000   0.00049   0.00049   1.89312
   A34        2.24698   0.00021   0.00000   0.00141   0.00141   2.24838
   A35        1.59883  -0.00011   0.00000  -0.00134  -0.00135   1.59748
   A36        2.40485   0.00007   0.00000  -0.00052  -0.00053   2.40432
   A37        1.85833  -0.00015   0.00000  -0.00359  -0.00359   1.85474
   A38        2.48648   0.00002   0.00000   0.00094   0.00094   2.48742
   A39        2.27146  -0.00008   0.00000  -0.00114  -0.00114   2.27032
   A40        1.85861  -0.00011   0.00000  -0.00272  -0.00272   1.85589
   A41        0.90492  -0.00003   0.00000  -0.00095  -0.00095   0.90397
   A42        2.19400  -0.00002   0.00000   0.00113   0.00113   2.19513
   A43        2.23422  -0.00013   0.00000  -0.00237  -0.00238   2.23183
   A44        1.85845  -0.00029   0.00000  -0.00395  -0.00395   1.85450
   A45        0.89982  -0.00003   0.00000  -0.00090  -0.00090   0.89892
   A46        2.18949   0.00008   0.00000   0.00176   0.00173   2.19123
   A47        1.54636  -0.00010   0.00000  -0.00171  -0.00172   1.54464
   A48        2.41825   0.00009   0.00000  -0.00011  -0.00012   2.41813
   A49        1.85795  -0.00016   0.00000  -0.00370  -0.00371   1.85425
   A50        2.51259  -0.00003   0.00000   0.00071   0.00071   2.51330
    D1       -3.13911  -0.00020   0.00000  -0.00553  -0.00553   3.13855
    D2       -1.96162  -0.00039   0.00000  -0.04646  -0.04646  -2.00808
    D3        1.29709  -0.00028   0.00000  -0.04460  -0.04460   1.25249
    D4        1.89948   0.00003   0.00000   0.00377   0.00377   1.90325
    D5       -1.36664   0.00001   0.00000   0.00214   0.00213  -1.36451
    D6       -2.47380   0.00003   0.00000   0.00150   0.00150  -2.47230
    D7        0.52561  -0.00007   0.00000  -0.00063  -0.00063   0.52498
    D8        2.98595   0.00008   0.00000   0.00430   0.00430   2.99026
    D9       -0.11121   0.00002   0.00000  -0.00059  -0.00058  -0.11179
   D10       -0.02983   0.00018   0.00000   0.00626   0.00626  -0.02357
   D11       -3.12699   0.00012   0.00000   0.00137   0.00137  -3.12562
   D12       -3.04183   0.00001   0.00000  -0.00073  -0.00073  -3.04255
   D13        0.25124   0.00000   0.00000   0.00114   0.00114   0.25238
   D14       -2.95068   0.00009   0.00000   0.00378   0.00378  -2.94690
   D15        0.53567  -0.00002   0.00000  -0.00290  -0.00290   0.53277
   D16        0.05707   0.00010   0.00000   0.00208   0.00208   0.05916
   D17       -2.73976  -0.00002   0.00000  -0.00460  -0.00460  -2.74436
   D18        0.19404  -0.00010   0.00000  -0.00471  -0.00470   0.18933
   D19        0.01911  -0.00013   0.00000  -0.00752  -0.00752   0.01159
   D20       -3.06028  -0.00004   0.00000  -0.00120  -0.00121  -3.06148
   D21       -0.99156  -0.00001   0.00000  -0.00174  -0.00175  -0.99330
   D22        1.15382   0.00014   0.00000   0.00073   0.00073   1.15455
   D23       -0.12877  -0.00001   0.00000   0.00265   0.00265  -0.12613
   D24        1.93995   0.00002   0.00000   0.00211   0.00211   1.94205
   D25       -2.19786   0.00017   0.00000   0.00458   0.00458  -2.19327
   D26        2.91055   0.00014   0.00000   0.00433   0.00433   2.91488
   D27        3.09627  -0.00010   0.00000  -0.00612  -0.00613   3.09014
   D28        0.07643   0.00000   0.00000  -0.00159  -0.00159   0.07484
   D29        0.26215  -0.00023   0.00000  -0.01205  -0.01205   0.25010
   D30       -3.13853  -0.00004   0.00000  -0.00328  -0.00328   3.14137
   D31       -1.06884  -0.00005   0.00000  -0.00446  -0.00446  -1.07329
   D32        1.07578   0.00009   0.00000  -0.00177  -0.00177   1.07401
   D33       -0.02472  -0.00001   0.00000  -0.00028  -0.00028  -0.02500
   D34        2.04498  -0.00002   0.00000  -0.00145  -0.00145   2.04353
   D35       -2.09359   0.00012   0.00000   0.00124   0.00124  -2.09235
   D36        3.11610   0.00007   0.00000   0.00456   0.00456   3.12065
   D37       -2.90358  -0.00006   0.00000   0.00151   0.00151  -2.90207
   D38        0.01450   0.00000   0.00000   0.00016   0.00016   0.01466
   D39        0.27801  -0.00012   0.00000  -0.00289  -0.00289   0.27511
   D40       -0.08154   0.00003   0.00000   0.00185   0.00185  -0.07969
   D41        0.02397   0.00001   0.00000   0.00026   0.00026   0.02422
   D42       -2.12305   0.00003   0.00000   0.00218   0.00218  -2.12087
   D43       -2.01754   0.00002   0.00000   0.00059   0.00059  -2.01695
   D44        1.95508   0.00000   0.00000   0.00165   0.00165   1.95673
   D45        2.06059  -0.00001   0.00000   0.00005   0.00005   2.06064
   D46        1.66089   0.00009   0.00000  -0.00221  -0.00221   1.65869
   D47       -2.67480   0.00009   0.00000  -0.00295  -0.00295  -2.67775
   D48       -0.46389  -0.00001   0.00000  -0.00413  -0.00413  -0.46802
   D49       -1.56322   0.00012   0.00000   0.00091   0.00091  -1.56231
   D50       -0.01980  -0.00001   0.00000  -0.00022  -0.00022  -0.02002
   D51       -0.78225  -0.00004   0.00000   0.00185   0.00186  -0.78039
   D52       -2.82335   0.00029   0.00000   0.00959   0.00959  -2.81376
   D53        0.10303   0.00012   0.00000   0.00104   0.00104   0.10407
   D54        0.13110   0.00001   0.00000  -0.00275  -0.00275   0.12835
   D55       -1.94500   0.00007   0.00000   0.00104   0.00103  -1.94396
   D56       -1.91692  -0.00004   0.00000  -0.00275  -0.00275  -1.91968
   D57        2.13512   0.00004   0.00000   0.00028   0.00027   2.13539
   D58        2.16319  -0.00007   0.00000  -0.00352  -0.00351   2.15968
   D59        1.74469   0.00011   0.00000  -0.00106  -0.00106   1.74363
   D60       -2.58855   0.00012   0.00000  -0.00144  -0.00145  -2.59000
   D61       -0.37844   0.00002   0.00000  -0.00253  -0.00253  -0.38098
   D62       -1.75324   0.00026   0.00000  -0.00279  -0.00279  -1.75603
   D63       -0.10606  -0.00001   0.00000   0.00220   0.00220  -0.10386
   D64       -0.97620  -0.00003   0.00000   0.00111   0.00111  -0.97509
   D65       -2.95890   0.00030   0.00000   0.00912   0.00912  -2.94978
   D66       -0.22292   0.00007   0.00000   0.00425   0.00425  -0.21867
   D67        2.24409   0.00003   0.00000   0.00149   0.00150   2.24559
   D68        1.60641  -0.00026   0.00000  -0.00444  -0.00443   1.60198
   D69        2.04373  -0.00001   0.00000   0.00109   0.00109   2.04482
   D70       -2.21997   0.00019   0.00000   0.00291   0.00290  -2.21707
   D71        2.06935   0.00000   0.00000   0.00570   0.00570   2.07506
   D72       -0.16101   0.00003   0.00000   0.00216   0.00216  -0.15885
   D73        2.29590   0.00003   0.00000   0.00010   0.00011   2.29600
         Item               Value     Threshold  Converged?
 Maximum Force            0.001370     0.000450     NO 
 RMS     Force            0.000295     0.000300     YES
 Maximum Displacement     0.148422     0.001800     NO 
 RMS     Displacement     0.037857     0.001200     NO 
 Predicted change in Energy=-4.136387D-05
 GradGradGradGradGradGradGradGradGradGradGradGradGradGradGradGradGradGrad

                          Input orientation:                          
 ---------------------------------------------------------------------
 Center     Atomic      Atomic             Coordinates (Angstroms)
 Number     Number       Type             X           Y           Z
 ---------------------------------------------------------------------
      1          7           0        0.397867   -0.261383    0.278966
      2          7           0       -0.358804    0.253041   -0.543629
      3          6           0        1.808397   -0.512327   -0.064671
      4          6           0       -1.770507    0.503248   -0.208487
      5          8           0       -2.213667    1.610032   -0.031351
      6          8           0        2.273962   -1.621164   -0.140331
      7          8           0       -2.441616   -0.666794   -0.305402
      8          8           0        2.453332    0.675325   -0.112610
      9          6           0        3.912820    0.652900   -0.246883
     10          1           0        4.141529    1.731340   -0.257871
     11          1           0        4.360044    0.145453    0.619257
     12          1           0        4.187902    0.165136   -1.185961
     13          6           0       -3.905759   -0.615784   -0.260440
     14          1           0       -4.156542   -1.689650   -0.272305
     15          1           0       -4.241374   -0.127551    0.664753
     16          1           0       -4.277341   -0.095875   -1.147595
     17          8           0        4.966604   -1.921368    0.870384
     18          1           0        4.149587   -2.237768    0.462430
     19          1           0        5.155888   -2.520632    1.590302
     20          8           0        2.725792    3.543614   -0.251770
     21          1           0        2.331962    4.019556   -0.981468
     22          1           0        2.097546    2.859004   -0.004943
     23          8           0       -2.881821   -3.564242   -0.170753
     24          1           0       -2.185732   -2.908862   -0.071025
     25          1           0       -2.613750   -4.131801   -0.892330
     26          8           0       -4.909025    1.926484    0.961594
     27          1           0       -4.069800    2.226539    0.587241
     28          1           0       -5.105365    2.518158    1.685744
 ---------------------------------------------------------------------
                    Distance matrix (angstroms):
                    1          2          3          4          5
     1  N    0.000000
     2  N    1.230385   0.000000
     3  C    1.473314   2.347754   0.000000
     4  C    2.350344   1.472354   3.722986   0.000000
     5  O    3.227786   2.354648   4.547804   1.205296   0.000000
     6  O    2.354686   3.256801   1.204987   4.568971   5.530942
     7  O    2.927202   2.289313   4.259627   1.352323   2.304561
     8  O    2.292528   2.876145   1.352315   4.228429   4.760374
     9  C    3.669785   4.300549   2.412375   5.685426   6.204547
    10  H    4.274826   4.745527   3.242665   6.038445   6.360389
    11  H    3.997519   4.861215   2.722377   6.196517   6.766236
    12  H    4.085621   4.592696   2.716301   6.047513   6.663403
    13  C    4.351754   3.662778   5.718445   2.411272   2.805336
    14  H    4.804841   4.274398   6.083560   3.241302   3.836760
    15  H    4.657178   4.084041   6.105722   2.695486   2.759593
    16  H    4.890813   3.980132   6.195351   2.743190   2.900840
    17  O    4.896803   5.923466   3.582456   7.240951   8.052341
    18  H    4.244427   5.248035   2.955698   6.558262   7.452542
    19  H    5.427943   6.531367   4.240038   7.768811   8.602470
    20  O    4.492094   4.519711   4.162604   5.427928   5.309009
    21  H    4.863728   4.649576   4.653235   5.458220   5.231756
    22  H    3.564593   3.621448   3.384236   4.533525   4.488562
    23  O    4.676269   4.590894   5.596748   4.216743   5.219097
    24  H    3.715727   3.682207   4.657949   3.440029   4.519154
    25  H    5.042015   4.942997   5.774166   4.760502   5.819794
    26  O    5.780644   5.076477   7.219749   3.639367   2.889816
    27  H    5.122972   4.352592   6.517636   2.981554   2.051333
    28  H    6.323799   5.712329   7.749058   4.332350   3.483537
                    6          7          8          9         10
     6  O    0.000000
     7  O    4.814015   0.000000
     8  O    2.303650   5.079268   0.000000
     9  C    2.805098   6.490290   1.465823   0.000000
    10  H    3.839389   7.006504   1.996567   1.102480   0.000000
    11  H    2.837190   6.912113   2.109963   1.098958   1.825415
    12  H    2.819109   6.739288   2.102644   1.093367   1.821125
    13  C    6.262122   1.465722   6.490520   7.920854   8.382592
    14  H    6.432223   1.997074   7.022040   8.402547   8.975599
    15  H    6.732655   2.114501   6.787341   8.242031   8.635959
    16  H    6.801519   2.098839   6.853314   8.273493   8.660699
    17  O    2.891710   7.605139   3.745080   2.997599   3.911008
    18  H    2.064337   6.819199   3.419658   2.985824   4.033946
    19  H    3.479889   8.046892   4.518612   3.871921   4.745939
    20  O    5.185701   6.665772   2.884559   3.124946   2.299713
    21  H    5.703384   6.723539   3.457387   3.791187   3.005670
    22  H    4.485684   5.755477   2.215092   2.867168   2.348077
    23  O    5.509862   2.933789   6.814776   7.997327   8.796490
    24  H    4.642396   2.268761   5.862511   7.064659   7.848606
    25  H    5.546038   3.518578   7.027926   8.118256   8.967316
    26  O    8.086739   3.797167   7.544774   8.994853   9.134424
    27  H    7.455032   3.437903   6.741462   8.178895   8.269544
    28  H    8.655807   4.604796   7.985237   9.409670   9.481654
                   11         12         13         14         15
    11  H    0.000000
    12  H    1.813514   0.000000
    13  C    8.347266   8.183751   0.000000
    14  H    8.757552   8.596787   1.102825   0.000000
    15  H    8.605870   8.635017   1.098631   1.823576   0.000000
    16  H    8.819548   8.469353   1.093354   1.822319   1.812982
    17  O    2.168578   3.031242   9.038923   9.197348   9.383332
    18  H    2.397631   2.914208   8.248756   8.356557   8.654605
    19  H    2.946915   3.982208   9.442835   9.533162   9.741253
    20  O    3.870008   3.797972   7.828035   8.646040   7.928359
    21  H    4.656619   4.282859   7.804833   8.671714   7.944639
    22  H    3.587741   3.608507   6.941117   7.737917   7.039170
    23  O    8.174997   8.057289   3.122483   2.269212   3.789103
    24  H    7.256205   7.163502   2.872730   2.326173   3.535919
    25  H    8.319471   8.050613   3.798809   2.954444   4.594311
    26  O    9.444835   9.511489   2.993833   3.894248   2.180122
    27  H    8.682984   8.693864   2.970568   4.010347   2.361607
    28  H    9.816368  10.007408   3.879211   4.737074   2.964570
                   16         17         18         19         20
    16  H    0.000000
    17  O    9.636139   0.000000
    18  H    8.842681   0.966464   0.000000
    19  H   10.117378   0.955630   1.537774   0.000000
    20  O    7.943064   6.012195   5.996803   6.787759   0.000000
    21  H    7.787635   6.757608   6.674032   7.573811   0.956077
    22  H    7.118718   5.643549   5.514200   6.390520   0.961409
    23  O    3.864100   8.085838   7.183395   8.294287   9.053923
    24  H    3.666978   7.281298   6.393060   7.537248   8.111115
    25  H    4.372802   8.090423   7.153004   8.314241   9.371928
    26  O    2.989589  10.599166   9.982415  11.021551   7.897961
    27  H    2.906259   9.946954   9.354354  10.423775   6.972711
    28  H    3.942918  11.037153  10.477092  11.432052   8.132192
                   21         22         23         24         25
    21  H    0.000000
    22  H    1.534741   0.000000
    23  O    9.238765   8.128941   0.000000
    24  H    8.321144   7.184645   0.961254   0.000000
    25  H    9.534812   8.476740   0.956378   1.534054   0.000000
    26  O    7.783850   7.134130   5.961530   5.644750   6.738557
    27  H    6.830689   6.227909   5.959782   5.509571   6.688625
    28  H    8.042515   7.406519   6.736937   6.408045   7.554904
                   26         27         28
    26  O    0.000000
    27  H    0.966681   0.000000
    28  H    0.955521   1.537578   0.000000
 Stoichiometry    C4H14N2O8
 Framework group  C1[X(C4H14N2O8)]
 Deg. of freedom    78
 Full point group                 C1      NOp   1
 Largest Abelian subgroup         C1      NOp   1
 Largest concise Abelian subgroup C1      NOp   1
                         Standard orientation:                         
 ---------------------------------------------------------------------
 Center     Atomic      Atomic             Coordinates (Angstroms)
 Number     Number       Type             X           Y           Z
 ---------------------------------------------------------------------
      1          7           0       -0.397702    0.259540    0.271898
      2          7           0        0.360497   -0.252654   -0.550683
      3          6           0       -1.808851    0.506732   -0.071920
      4          6           0        1.772818   -0.499103   -0.215360
      5          8           0        2.218949   -1.604719   -0.038387
      6          8           0       -2.277408    1.614318   -0.147420
      7          8           0        2.440767    0.672775   -0.311915
      8          8           0       -2.450554   -0.682654   -0.120218
      9          6           0       -3.910076   -0.664159   -0.254728
     10          1           0       -4.135858   -1.743213   -0.265983
     11          1           0       -4.358817   -0.158112    0.611447
     12          1           0       -4.186325   -0.176942   -1.193747
     13          6           0        3.905036    0.625725   -0.266721
     14          1           0        4.152908    1.700271   -0.278316
     15          1           0        4.241822    0.138207    0.658423
     16          1           0        4.278173    0.107016   -1.153926
     17          8           0       -4.971021    1.907003    0.862913
     18          1           0       -4.154798    2.225705    0.455161
     19          1           0       -5.162048    2.505599    1.582927
     20          8           0       -2.715212   -3.551642   -0.260033
     21          1           0       -2.319973   -4.026358   -0.989768
     22          1           0       -2.088865   -2.865384   -0.012957
     23          8           0        2.873092    3.571377   -0.176576
     24          1           0        2.178766    2.914090   -0.077103
     25          1           0        2.603601    4.138361   -0.898077
     26          8           0        4.914991   -1.914073    0.954937
     27          1           0        4.076645   -2.216323    0.580382
     28          1           0        5.112816   -2.505367    1.678994
 ---------------------------------------------------------------------
 Rotational constants (GHZ):      0.6595009      0.2408677      0.1827103
 Standard basis: VSTO-6G (5D, 7F)
 There are    70 symmetry adapted cartesian basis functions of A   symmetry.
 There are    70 symmetry adapted basis functions of A   symmetry.
    70 basis functions,   420 primitive gaussians,    70 cartesian basis functions
    44 alpha electrons       44 beta electrons
       nuclear repulsion energy       607.6656778363 Hartrees.
 Integral buffers will be    131072 words long.
 Regular integral format.
 Two-electron integral symmetry is turned off.
 Nuclear repulsion after empirical dispersion term =      607.6593463248 Hartrees.
 ------------------------------------------------------------------------------
 Polarizable Continuum Model (PCM)
 =================================
 Model                : C-PCM.
 Atomic radii         : UFF (Universal Force Field).
 Polarization charges : Total charges.
 Charge compensation  : None.
 Solution method      : On-the-fly selection.
 Cavity type          : Scaled VdW (van der Waals Surface) (Alpha=1.100).
 Cavity algorithm     : GePol (No added spheres)
                        Default sphere list used, NSphG=   28.
                        Lebedev-Laikov grids with approx.  5.0 points / Ang**2.
                        Smoothing algorithm: Karplus/York (Gamma=1.0000).
                        Polarization charges: spherical gaussians, with
                                              point-specific exponents (IZeta= 3).
                        Self-potential: point-specific (ISelfS= 7).
                        Self-field    : sphere-specific E.n sum rule (ISelfD= 2).
 1st derivatives      : Analytical E(r).r(x)/FMM algorithm (CHGder, D1EAlg=3).
                        Cavity 1st derivative terms included.
 Solvent              : Water, Eps=  78.355300 Eps(inf)=   1.777849
 ------------------------------------------------------------------------------
 Do NDO integrals.
 One-electron integrals computed using PRISM.
 NBasis=    70 RedAO= F EigKep=  0.00D+00  NBF=    70
 NBsUse=    70 1.00D-04 EigRej=  0.00D+00 NBFU=    70
 Initial guess from the checkpoint file:  "dmad_4H2O_cycloaddition_PM6_toluene_water.chk"
 B after Tr=     0.000000    0.000000    0.000000
         Rot=    0.999999   -0.000074    0.000114   -0.001241 Ang=  -0.14 deg.
 Overlap will be assumed to be unity.
 Keep J ints in memory in canonical form, NReq=10233903.
 Requested convergence on RMS density matrix=1.00D-08 within 128 cycles.
 Requested convergence on MAX density matrix=1.00D-06.
 Requested convergence on             energy=1.00D-06.
 No special actions if energy rises.
 Inv3:  Mode=1 IEnd=    19830123.
 Iteration    1 A*A^-1 deviation from unit magnitude is 8.44D-15 for   2551.
 Iteration    1 A*A^-1 deviation from orthogonality  is 2.82D-15 for   2554   1746.
 Iteration    1 A^-1*A deviation from unit magnitude is 8.44D-15 for   2551.
 Iteration    1 A^-1*A deviation from orthogonality  is 3.78D-15 for   2547    996.
 Error on total polarization charges = -0.00043
 SCF Done:  E(RPM6D3) = -0.572385113463     A.U. after   14 cycles
            NFock= 13  Conv=0.32D-08     -V/T= 0.9888
 D1PCM: C-PCM CHGder 1st derivatives, ID1Alg=3 FixD1E=F DoIter=F DoCFld=F I1PDM=0.
 Calling FoFJK, ICntrl=      2127 FMM=F ISym2X=0 I1Cent= 0 IOpClX= 0 NMat=1 NMatS=1 NMatT=0.
 ***** Axes restored to original set *****
 -------------------------------------------------------------------
 Center     Atomic                   Forces (Hartrees/Bohr)
 Number     Number              X              Y              Z
 -------------------------------------------------------------------
      1        7          -0.000209431   -0.000773830   -0.000231665
      2        7          -0.000196955    0.000051636    0.000183940
      3        6          -0.000114232    0.000901947    0.000092040
      4        6           0.000475413   -0.000484447   -0.000209041
      5        8          -0.000171511    0.000297376   -0.000035189
      6        8          -0.000232221    0.000002234    0.000002181
      7        8           0.000036255    0.000267654    0.000313375
      8        8           0.000499298   -0.000412537   -0.000011389
      9        6          -0.000002044    0.000121899    0.000129936
     10        1           0.000136470   -0.000245372   -0.000092758
     11        1          -0.000204032    0.000139374   -0.000206075
     12        1          -0.000019995    0.000066089   -0.000075832
     13        6          -0.000064458    0.000067434    0.000225242
[...]
 01108,0.00001615,-0.00001848,0.00001523,-0.00000957,-0.00000097,0.0000
 0017,-0.00000569,0.05182739,0.07713665,-0.08259292,-0.06627458,-0.0930
 8615,0.10201310,-0.00012565,-0.00059636,0.00015166,-0.00010703,0.00022
 008,-0.00018194,0.00167256,0.00112411,-0.00012963,-0.00023227,0.000059
 14,0.00000753,0.00026980,0.00000102,-0.00001869,-0.00017850,-0.0009129
 9,-0.00001245,-0.00000574,-0.00000130,0.00000914,-0.00131577,-0.000656
 03,0.00003280,-0.00019859,-0.00016091,0.00000764,-0.00011392,0.0002131
 6,0.00001253,-0.00004895,0.00007134,-0.00007770,-0.00000895,0.00004835
 ,0.00007356,0.00001026,-0.00000444,0.00000269,0.00000165,0.00000121,-0
 .00000009,-0.00000269,-0.00000056,0.00000150,0.00000006,-0.00000078,-0
 .00000018,0.00003262,-0.00003248,0.00002665,-0.00003492,0.00003293,-0.
 00001484,-0.00000120,0.00000188,-0.00000852,-0.07206834,0.09144987,-0.
 04054583,0.00155424,-0.01940727,0.01448354,0.07090513,0.00004730,-0.00
 038756,-0.00006803,0.00009349,0.00015126,0.00015399,-0.00218548,-0.005
 25709,0.00005384,-0.00120484,-0.00011901,-0.00014153,0.00043572,-0.000
 15866,-0.00002749,-0.00024658,0.00303376,0.00008331,0.00047061,0.00010
 764,0.00000619,0.00076105,0.00054779,-0.00005853,0.00128230,0.00108976
 ,0.00000219,0.00032812,0.00013490,-0.00008012,-0.00014626,-0.00016791,
 0.00022900,-0.00022568,-0.00010502,-0.00020140,-0.00009816,0.00012777,
 0.00000461,0.00003450,-0.00004152,0.00000895,-0.00002317,0.00001090,0.
 00003127,-0.00000880,0.00000022,-0.00003006,-0.00010822,0.00011583,-0.
 00009064,0.00015945,-0.00012644,0.00006181,0.00000353,-0.00001988,0.00
 003443,0.05396419,-0.11418092,0.06449981,0.01811554,-0.03120096,0.0161
 6034,-0.07144791,0.14643664,-0.00004738,-0.00003296,0.00022600,0.00002
 959,0.00005018,-0.00006710,0.00014366,0.00001480,-0.00008361,-0.000062
 28,-0.00006365,0.00001174,0.00008097,0.00004571,0.00000746,-0.00002160
 ,0.00000148,0.00005646,0.00001470,0.00001611,-0.00001175,0.00020825,-0
 .00092865,-0.00034708,0.00004663,-0.00005829,0.00014351,0.00000552,-0.
 00008273,-0.00001509,-0.00004573,-0.00000302,-0.00001739,0.00003074,0.
 00003210,-0.00003598,-0.00000164,0.00000334,0.00000103,0.00000275,-0.0
 0000159,0.00000183,0.00000057,0.00000138,0.00000169,-0.00000407,0.0000
 0027,0.00000069,0.00000040,0.00000723,0.00001265,0.00000011,-0.0000007
 0,-0.00000619,-0.00000036,-0.00000451,-0.00000315,-0.01198804,0.049116
 46,-0.03322214,-0.01457681,0.03252537,-0.01945355,0.02617888,-0.080644
 10,0.05279590,-0.00048185,-0.00098959,-0.00019941,0.00003652,0.0005080
 7,-0.00000937,0.00106515,0.00103544,0.00011270,-0.00069798,0.00027764,
 -0.00000400,0.00024588,-0.00017682,-0.00000817,-0.00286035,-0.00135544
 ,-0.00043066,0.00024339,0.00095995,0.00039148,-0.00027021,-0.00020314,
 0.00002360,0.00005101,-0.00006634,-0.00000943,-0.00002091,0.00002176,0
 .00000677,0.00001880,-0.00000827,0.00001830,0.00000953,-0.00000451,-0.
 00001741,-0.00009951,-0.00013785,0.00003039,0.00018208,0.00008833,-0.0
 0005685,-0.00002108,0.00000703,0.00000780,0.00001247,0.00000817,-0.000
 01297,0.00001657,0.00003163,-0.00000776,0.00001354,-0.00004641,0.00001
 175,-0.00001462,-0.00000046,0.00000317,-0.00000856,-0.00001847,0.00000
 573,0.00000139,0.00000116,-0.00000444,-0.00000475,0.00002767,0.0000001
 7,0.14449977,-0.00069941,-0.00173003,-0.00034071,-0.00002492,0.0003917
 8,0.00012265,0.00160969,0.00099153,0.00012808,0.00028807,0.00334268,-0
 .00015264,0.00045884,-0.00195035,-0.00000756,-0.00141396,-0.00099300,0
 .00027149,0.00115889,-0.00280320,-0.00060247,-0.00052024,-0.00029940,0
 .00002114,0.00009959,-0.00013053,-0.00002340,-0.00003734,0.00004605,0.
 00001151,0.00002736,-0.00000749,0.00003313,0.00001635,-0.00000478,-0.0
 0003904,-0.00062532,-0.00053428,-0.00013029,-0.00017483,-0.00009007,0.
 00013228,0.00011550,0.00010115,0.00014907,0.00003946,0.00006825,-0.000
 16527,-0.00005645,0.00001545,-0.00001586,0.00008308,-0.00002305,0.0000
 1951,0.00001267,-0.00000769,0.00000339,-0.00002206,-0.00004379,-0.0000
 1066,0.00000759,-0.00000150,0.00000295,-0.00001092,0.00007001,0.000005
 36,-0.03342055,0.18340335,-0.00013198,-0.00010100,-0.00004424,0.000032
 71,-0.00006859,-0.00031506,0.00014463,0.00057904,0.00001920,-0.0007810
 3,-0.00042628,0.00002061,0.00009942,0.00029552,-0.00001917,-0.00035653
 ,-0.00011926,-0.00019053,0.00022839,0.00091307,0.00057148,-0.00010596,
 -0.00016341,0.00003704,0.00002683,-0.00002242,0.00000281,-0.00000301,0
 .00001070,-0.00000231,0.00001329,-0.00000355,0.00000312,-0.00000396,0.
 00000118,-0.00000438,0.00005948,0.00018503,-0.00027670,0.00003384,-0.0
 0005038,0.00010202,-0.00004322,-0.00003106,0.00000904,0.00003974,0.000
 03512,0.00005485,0.00001023,0.00001382,-0.00002179,0.00000517,-0.00000
 974,0.00001581,-0.00000853,-0.00000442,0.00000981,0.00000091,-0.000022
 79,-0.00000734,0.00000099,0.00000574,-0.00000139,-0.00000370,0.0000165
 0,0.00000659,-0.04343122,-0.12323592,0.12024044,-0.00007758,0.00022125
 ,-0.00019465,-0.00025034,-0.00067409,0.00017345,-0.00029374,0.00006697
 ,0.00001693,0.00172124,0.00108231,-0.00039476,-0.00016229,-0.00079408,
 0.00005737,0.00026747,-0.00002715,-0.00000682,-0.00149346,-0.00095192,
 0.00012900,0.00002423,-0.00000269,0.00000686,0.00000333,0.00000423,0.0
 0000339,0.00000512,-0.00000145,-0.00000157,-0.00000237,-0.00000033,-0.
 00000237,-0.00000256,0.00000028,0.00000299,-0.00018002,-0.00004549,-0.
 00000816,-0.00025219,0.00011836,0.00012300,-0.00004956,0.00005129,0.00
 005650,-0.00006658,0.00005619,-0.00008602,-0.00000195,-0.00000617,-0.0
 0000169,-0.00000235,0.00000865,0.00000056,0.00000215,-0.00000003,0.000
 00050,-0.00000442,-0.00000723,-0.00000383,0.00000075,0.00000025,0.0000
 0187,0.00000018,0.00000259,0.00000160,-0.07118787,0.09231366,-0.037474
 51,0.07039689,0.00008592,0.00004989,0.00011471,-0.00009395,-0.00033394
 ,-0.00015142,-0.00125652,-0.00011798,-0.00011574,-0.00211606,-0.005980
 71,0.00030365,-0.00038853,0.00308730,-0.00006943,0.00044536,-0.0001504
 7,-0.00000649,0.00068741,0.00138211,-0.00046806,0.00050731,0.00011286,
 -0.00002032,-0.00010367,0.00014184,0.00002567,0.00003640,-0.00004484,-
 0.00000981,-0.00002250,0.00000902,-0.00003123,-0.00001210,0.00000442,0
 .00003525,0.00132391,0.00095730,0.00032814,0.00026100,0.00025684,-0.00
 024170,-0.00023767,-0.00015302,-0.00018918,-0.00006189,-0.00011487,0.0
 0022226,0.00005307,-0.00001859,0.00002336,-0.00007279,0.00002454,-0.00
 002152,-0.00001023,0.00000939,-0.00000782,0.00002705,0.00005912,0.0000
 0514,-0.00000811,-0.00000304,-0.00000016,0.00000618,-0.00006944,-0.000
 00311,0.05575797,-0.11706999,0.06251694,-0.07291746,0.14908658,0.00009
 500,0.00011615,-0.00002009,0.00002267,-0.00005836,0.00013652,-0.000364
 08,-0.00002640,-0.00003691,-0.00035825,-0.00104334,0.00008015,-0.00007
 074,0.00072123,0.00004279,0.00021126,-0.00003746,0.00001995,0.00063264
 ,-0.00152338,-0.00111677,0.00011951,0.00002265,-0.00001228,-0.00002188
 ,0.00003463,0.00000867,0.00000919,-0.00001112,-0.00000088,-0.00000852,
 0.00000256,-0.00000603,-0.00000091,0.00000112,0.00000856,0.00029455,0.
 00027616,0.00021973,0.00009449,-0.00006436,-0.00005729,-0.00003001,-0.
 00004066,-0.00006175,-0.00006577,-0.00006460,0.00002113,0.00000304,-0.
 00001073,0.00000564,-0.00001397,0.00001312,-0.00000421,0.00000186,0.00
 000238,-0.00000256,0.00000688,0.00001813,0.00000534,-0.00000123,-0.000
 00098,0.00000053,0.00000221,-0.00001655,-0.00000292,-0.00953922,0.0452
 0786,-0.03148555,0.02378003,-0.07740271,0.05162984,0.00004825,0.000078
 64,0.00000737,0.00003339,-0.00003018,-0.00001165,-0.00016710,0.0000580
 8,-0.00003633,-0.00014867,-0.00055208,0.00005125,-0.00004560,0.0003211
 6,-0.00001004,0.00004539,-0.00010591,0.00003838,-0.00011197,0.00035547
 ,-0.00000064,0.00003938,-0.00000820,-0.00000589,-0.00000407,0.00001316
 ,0.00000180,0.00000449,-0.00000439,-0.00000107,-0.00000433,0.00000107,
 -0.00000402,-0.00000124,-0.00000087,0.00000233,0.00013177,0.00015451,-
 0.00000711,-0.00023482,0.00002646,0.00006175,-0.00002262,-0.00002440,-
 0.00001872,-0.00000182,-0.00000432,0.00003837,-0.00000570,-0.00001071,
 0.00000809,-0.00000037,0.00001303,-0.00000741,0.00000571,0.00000205,-0
 .00000381,0.00000089,0.00000576,-0.00000006,0.00000055,0.00000009,0.00
 000007,0.00000088,-0.00000722,0.00000003,-0.07072132,-0.05917249,0.081
 65194,0.00160913,0.01805099,-0.01481210,0.06954268,0.00008573,0.000108
 03,0.00002883,0.00000645,-0.00006940,-0.00002143,-0.00020796,0.0001185
 8,-0.00000338,-0.00021980,-0.00076391,0.00003501,-0.00005593,0.0004339
 6,0.00000274,0.00014403,-0.00007691,-0.00001419,-0.00007047,0.00055752
 ,-0.00003956,0.00002658,-0.00002776,0.00000057,0.00000270,0.00000909,0
 .00000205,0.00000598,-0.00000313,-0.00000137,-0.00000303,-0.00000061,-
 0.00000270,-0.00000203,0.00000045,0.00000453,0.00010573,0.00010679,0.0
 0005058,0.00016240,-0.00001129,-0.00007491,-0.00002158,-0.00001760,-0.
 00003372,-0.00001752,-0.00002608,0.00003336,0.00000152,-0.00000417,-0.
 00000519,-0.00000572,0.00000668,0.00000185,-0.00000063,0.00000046,0.00
 000280,0.00000269,0.00000120,0.00000451,-0.00000031,0.00000300,-0.0000
 0241,0.00000092,-0.00000693,-0.00000037,-0.02229588,-0.06277228,0.0596
 8091,-0.01849719,-0.03109233,0.03389195,0.04084164,0.09353336,-0.00008
 424,-0.00016746,-0.00006810,-0.00001352,0.00015754,0.00007147,0.000238
 99,-0.00022297,0.00002786,0.00028687,0.00062966,0.00002665,0.00003841,
 -0.00039400,-0.00000980,-0.00022017,0.00013132,0.00001405,-0.00007170,
 -0.00034705,-0.00010722,-0.00002831,0.00006270,-0.00001166,-0.00000010
 ,-0.00001156,-0.00000553,-0.00000511,0.00000114,0.00000272,-0.00000121
 ,-0.00000059,0.00000390,0.00000315,-0.00000167,-0.00000299,-0.00010609
 ,-0.00012457,0.00012811,-0.00005432,0.00003525,0.00000264,0.00003218,0
 .00002645,0.00001198,-0.00000651,-0.00001273,-0.00004439,-0.00000063,-
 0.00000023,0.00000594,0.00000174,-0.00000527,-0.00000237,0.00000021,0.
 00000233,-0.00000322,-0.00000428,0.00000398,0.,0.00000030,-0.00000262,
 0.00000094,0.00000110,0.00000021,-0.00000074,0.05311772,0.07860245,-0.
 08872326,0.01382206,0.01517449,-0.01937104,-0.06694121,-0.09353825,0.1
 0805169,-0.00024476,0.00010714,-0.00012365,-0.00030366,0.00032648,-0.0
 0000905,0.00040946,-0.00015768,-0.00000441,0.00149662,-0.00245969,0.00
 010552,-0.00392912,0.00291922,0.00158980,-0.00017577,0.00012810,0.0000
 0268,-0.00033291,0.00048080,0.00007800,-0.00019951,0.00001663,0.000011
 00,0.00002977,-0.00006793,-0.00001176,-0.00001767,0.00001797,0.0000051
 9,0.00001102,-0.00000305,0.00001313,0.00000423,-0.00000147,-0.00001282
 ,0.00017313,0.00125626,0.00064290,-0.00016401,-0.00017207,0.00006289,-
 0.00031470,0.00038100,-0.00027662,-0.00015510,-0.00006772,-0.00026276,
 -0.00001013,0.00000733,-0.00001004,0.00002154,-0.00001252,0.00001041,-
 0.00000055,-0.00000183,0.00000284,0.00001278,-0.00002397,-0.00003896,0
 .00000616,-0.00000965,0.00001621,-0.00000867,0.00003974,0.00000566,0.0
 0001186,0.00006137,-0.00001432,0.00002494,-0.00010311,-0.00001883,-0.0
 0000821,-0.00001032,0.00001348,0.17269830,0.00020131,-0.00010326,0.000
 14228,0.00028018,-0.00009389,-0.00006528,-0.00038832,0.00018645,-0.000
 00416,-0.00173760,0.00062830,0.00009475,0.00119600,-0.00011945,-0.0003
 9453,0.00017209,-0.00015318,-0.00000192,0.00099034,-0.00020741,-0.0001
 9040,0.00017941,-0.00002135,-0.00001115,-0.00003584,0.00004972,0.00000
 867,0.00001646,-0.00001512,-0.00000384,-0.00000917,0.00000391,-0.00001
 245,-0.00000349,0.00000182,0.00001327,0.00047871,-0.00365369,-0.002509
 68,0.00025476,0.00038697,-0.00020479,-0.00040965,0.00056537,0.00171558
 ,0.00021006,0.00008370,0.00053710,0.00000837,-0.00001060,0.00000994,-0
 .00001934,0.00001438,-0.00000901,0.00000144,0.00000233,-0.00000380,0.0
 0003541,0.00001722,0.00000554,-0.00000833,-0.00000538,0.00000171,-0.00
 000574,-0.00001900,-0.00000845,-0.00002844,-0.00006248,0.00003002,-0.0
 0003263,0.00011787,0.00001855,0.00001787,0.00000549,-0.00002244,0.0291
 6655,0.10141090,0.00022748,-0.00013236,0.00003241,0.00032782,-0.000313
 66,0.00008851,-0.00039700,0.00021236,0.00001516,-0.00134521,0.00208869
 ,-0.00005550,0.00313221,-0.00235617,-0.00085149,0.00017943,-0.00015335
 ,-0.00000754,0.00046087,-0.00037904,-0.00026402,0.00020895,-0.00002911
 ,-0.00000755,-0.00003919,0.00006602,-0.00000156,0.00001833,-0.00001704
 ,-0.00000338,-0.00000849,0.00000397,-0.00001255,-0.00000490,0.00000190
 ,0.00001497,-0.00003583,-0.00173500,-0.00046175,0.00016140,0.00016619,
 -0.00015791,-0.00027710,0.00091205,-0.00007887,0.00009227,0.00014192,0
 .00035440,0.00001168,-0.00001045,0.00000693,-0.00002077,0.00001420,-0.
 00000776,-0.00000008,0.00000291,-0.00000232,0.00000010,0.00003578,-0.0
 0000498,0.00000240,-0.00000226,-0.00000114,0.,-0.00003457,-0.00000113,
 -0.00001188,-0.00006903,-0.00000611,-0.00002187,0.00010417,0.00003265,
 0.00000744,0.00001091,-0.00000918,-0.09402958,0.08871256,0.17264166,0.
 00047073,-0.00035056,0.00008509,0.00061543,-0.00093879,0.00017091,-0.0
 0078189,0.00042844,0.00006324,-0.00156424,0.00736099,-0.00052053,0.000
 73066,-0.00522899,-0.00022997,0.00033214,-0.00027220,-0.00001373,-0.00
 060576,-0.00182247,0.00008618,0.00042214,-0.00004917,-0.00002663,-0.00
 007626,0.00013399,0.00001485,0.00003619,-0.00003557,-0.00000868,-0.000
 02042,0.00000805,-0.00002565,-0.00000753,0.00000426,0.00002768,0.00015
 255,0.00002703,0.00017061,0.00001547,0.00008412,-0.00001873,0.00045236
 ,-0.00100560,-0.00028096,0.00005355,0.00003843,0.00007148,0.00002234,-
 0.00001832,0.00001858,-0.00004151,0.00002636,-0.00001781,0.00000016,0.
 00000491,-0.00000635,0.00001817,0.00005198,0.00001881,-0.00000845,0.00
 000542,-0.00000619,0.00000428,-0.00006010,-0.00000160,-0.00001889,-0.0
 0011687,0.00000574,-0.00002820,0.00016215,0.00003485,0.00001538,0.0000
 2254,-0.00001762,-0.14658264,-0.01857020,0.08755862,0.16328784,-0.0002
 9063,0.00018489,-0.00012275,-0.00046953,0.00034885,0.00001787,0.000531
 15,-0.00028212,-0.00001754,0.00269809,-0.00373627,-0.00024579,-0.00078
 106,0.00151658,0.00009211,-0.00023487,0.00020707,0.00000682,-0.0004563
 9,0.00068547,0.00012262,-0.00026894,0.00003306,0.00001714,0.00005430,-
 0.00007696,-0.00001098,-0.00002346,0.00002216,0.00000555,0.00001281,-0
 .00000588,0.00001756,0.00000473,-0.00000309,-0.00001893,0.00057242,0.0
 0054598,0.00001658,-0.00022527,-0.00020289,0.00010085,-0.00018326,-0.0
 0169410,0.00021861,-0.00018037,-0.00021153,-0.00039794,-0.00001393,0.0
 0001427,-0.00001327,0.00002763,-0.00001935,0.00001192,-0.00000090,-0.0
 0000346,0.00000504,-0.00004889,-0.00002245,-0.00000184,0.00001063,0.00
 000653,-0.00000565,0.00000744,0.00002416,0.00000843,0.00002120,0.00008
 398,-0.00001402,0.00002883,-0.00012985,-0.00002754,-0.00001543,-0.0000
 1245,0.00001738,-0.04923690,-0.02028525,0.01507828,0.02545519,0.025800
 07,-0.00019413,0.00020515,0.00001944,-0.00034158,0.00048379,-0.0000485
 1,0.00037928,-0.00024765,-0.00003140,0.00060226,-0.00323627,0.00022449
 ,-0.00095233,0.00265946,-0.00022000,-0.00016717,0.00014227,0.00000749,
 0.00018268,0.00065224,0.00003849,-0.00022677,0.00003060,0.00000983,0.0
 0004389,-0.00007116,-0.00000009,-0.00001945,0.00001864,0.00000390,0.00
 000954,-0.00000435,0.00001324,0.00000445,-0.00000211,-0.00001521,0.000
 01108,0.00005361,-0.00022732,-0.00002595,-0.00002735,0.00004613,-0.000
 14095,0.00067418,0.00045880,-0.00003450,-0.00004907,-0.00009617,-0.000
 01292,0.00001043,-0.00000863,0.00002139,-0.00001390,0.00000830,0.00000
 050,-0.00000295,0.00000318,-0.00000564,-0.00004158,0.00000606,-0.00000
 215,0.00000522,-0.00000074,0.00000232,0.00003482,0.00000182,0.00000456
 ,0.00006246,0.00000567,0.00001308,-0.00007786,-0.00002222,-0.00000459,
 -0.00001279,0.00000712,0.05505247,-0.00784572,-0.05065746,-0.09325860,
 0.00576089,0.07915143,-0.00000666,0.00002639,0.00002551,-0.00001333,0.
 00002899,-0.00003082,0.00001519,-0.00003715,-0.00000970,-0.00012238,-0
 .00018120,0.00005569,-0.00007707,0.00023813,0.00001033,-0.00000859,0.0
 0001686,0.00000200,0.00004257,0.00006292,-0.00000028,-0.00001480,0.000
 00597,0.00000076,0.00000656,-0.00000161,0.00000292,-0.00000114,0.00000
 055,-0.00000036,-0.00000007,-0.00000080,0.00000062,0.00000007,-0.00000
 046,-0.00000150,-0.00005630,0.00010733,-0.00000239,0.00001774,0.000020
 65,0.00002290,-0.00006166,0.00018609,0.00001605,0.00002029,0.00000941,
 0.00002686,-0.00000084,0.00000180,-0.00000011,0.00000070,-0.00000141,-
 0.00000027,0.00000004,-0.00000050,0.00000039,-0.00001177,-0.00000275,0
 .00001575,-0.00000147,0.00000510,-0.00000729,0.00000471,-0.00000370,-0
 .00000073,-0.00000018,0.00000347,0.00000344,0.00000042,-0.00000041,-0.
 00000225,-0.00000024,-0.00000070,-0.00000047,-0.02245303,-0.01196101,0
 .00380205,-0.01689365,0.02300553,0.03905907,0.03961558,-0.00005896,0.0
 0005427,-0.00002300,-0.00008022,0.00010588,0.00000130,0.00009788,-0.00
 005631,-0.00000970,0.00025859,-0.00087381,0.00007246,-0.00071047,0.000
 67625,0.00025726,-0.00004085,0.00003296,0.00000144,0.00011748,0.000215
 54,-0.00007658,-0.00005305,0.00000409,0.00000383,0.00000894,-0.0000161
 4,-0.00000214,-0.00000527,0.00000475,0.00000113,0.00000303,-0.00000079
 ,0.00000345,0.00000096,-0.00000019,-0.00000368,0.00010397,-0.00013835,
 -0.00007269,-0.00001919,-0.00001686,-0.00001812,-0.00015294,-0.0000464
 9,0.00001417,-0.00002217,-0.00002778,-0.00001390,-0.00000202,0.0000023
 7,-0.00000282,0.00000509,-0.00000350,0.00000264,-0.00000044,-0.0000004
 5,0.00000100,-0.00000356,-0.00000862,-0.00000738,0.00000199,0.00000127
 ,0.00000271,-0.00000040,0.00000987,0.00000404,0.00000567,0.00000934,-0
 .00001117,0.00000300,-0.00002006,0.00000181,-0.00000324,0.00000064,0.0
 0000679,0.01741945,-0.07872523,-0.10231986,-0.00534499,-0.00278708,0.0
 0083895,-0.01152769,0.08160491,-0.00007443,0.00004869,-0.00002205,-0.0
 0011861,0.00010042,-0.00001413,0.00013300,-0.00007859,-0.00000555,0.00
 058193,-0.00077762,-0.00004981,-0.00079528,0.00062204,0.00034248,-0.00
 005985,0.00005409,0.00000281,-0.00011961,0.00017947,0.00006963,-0.0000
 6785,0.00001246,0.00000194,0.00001197,-0.00002164,0.00000139,-0.000006
 33,0.00000527,0.00000100,0.00000271,-0.00000137,0.00000414,0.00000172,
 -0.00000067,-0.00000514,0.00003278,0.00046249,0.00028953,-0.00006118,-
 0.00007301,0.00004904,0.00026112,-0.00124044,-0.00030373,-0.00005370,0
 .00000340,-0.00011285,-0.00000303,0.00000366,-0.00000195,0.00000644,-0
 .00000492,0.00000253,-0.00000033,-0.00000095,0.00000057,0.00000013,-0.
 00001147,0.00000093,-0.00000093,0.00000023,0.00000095,0.00000003,0.000
 01186,0.00000074,0.00000834,0.00001959,-0.00000149,0.00000705,-0.00003
 687,-0.00001064,-0.00000383,-0.00000058,0.00000497,0.03720008,-0.08000
 178,-0.12059454,0.00610655,-0.02062145,-0.02867757,-0.04298791,0.10134
 771,0.14902685\\0.00000098,0.00000217,-0.00000271,0.00000459,0.0000021
 8,0.00000243,-0.00001503,-0.00002259,0.00000374,-0.00001225,-0.0000211
 4,0.00001098,0.00000486,0.00001141,-0.00000958,0.00001052,0.00001383,0
 .00000394,0.00000361,0.00001220,-0.00001226,0.00000872,0.00000265,-0.0
 0000507,-0.00000583,-0.00000110,-0.00000145,-0.00000107,0.00000765,0.0
 0000225,0.00000142,0.00000068,-0.00000801,-0.00000104,-0.00000016,0.00
 000199,0.00000295,0.00000143,0.00001114,-0.00000306,-0.00000402,0.0000
 0345,-0.00000197,0.00000605,-0.00000475,-0.00000049,-0.00000289,-0.000
 00172,0.00001921,-0.00000667,0.00001542,-0.00002119,-0.00000734,-0.000
 00368,-0.00000221,0.00001150,-0.00000041,0.00000021,-0.00001885,0.0000
 0655,0.00001058,-0.00000502,-0.00000961,-0.00001056,0.00002609,-0.0000
 1150,-0.00000026,-0.00001469,0.00001125,-0.00000029,0.00000245,0.00000
 671,0.00000556,0.00000600,-0.00000167,-0.00000023,0.00000230,0.0000090
 5,0.00000289,0.00000076,-0.00000412,-0.00000065,-0.00000485,-0.0000123
 6\\\@


       THE DEATH-KNELL OF THE ATOM

 SO THE ATOMS IN TURN, WE NOW CLEARLY DISCERN,
 FLY TO BITS WITH THE UTMOST FACILITY;
 THEY WEND ON THEIR WAY, AND, IN SPLITTING, DISPLAY
 AN ABSOLUTE LACK OF STABILITY.

          SIR WM. RAMSAY, 1905
 Job cpu time:       0 days  0 hours  0 minutes 35.6 seconds.
 File lengths (MBytes):  RWF=    123 Int=      0 D2E=      0 Chk=     12 Scr=      1
 Normal termination of Gaussian 09 at Tue Sep  8 22:56:10 2020.
