 Entering Gaussian System, Link 0=g09
 Input=freq_TS_4H2O_associated_cycloaddition_PM6_toluene_3_6_water_1.com
 Output=freq_TS_4H2O_associated_cycloaddition_PM6_toluene_3_6_water_1.log
 Initial command:
 /apps/applications/gaussian/G09.D01/2/default/g09/l1.exe "/local/743733.1.40core-192G.q/Gau-7470.inp" -scrdir="/local/743733.1.40core-192G.q/"
 Entering Link 1 = /apps/applications/gaussian/G09.D01/2/default/g09/l1.exe PID=      7471.
  
 Copyright (c) 1988,1990,1992,1993,1995,1998,2003,2009,2013,
            Gaussian, Inc.  All Rights Reserved.
  
 This is part of the Gaussian(R) 09 program.  It is based on
 the Gaussian(R) 03 system (copyright 2003, Gaussian, Inc.),
 the Gaussian(R) 98 system (copyright 1998, Gaussian, Inc.),
 the Gaussian(R) 94 system (copyright 1995, Gaussian, Inc.),
 the Gaussian 92(TM) system (copyright 1992, Gaussian, Inc.),
 the Gaussian 90(TM) system (copyright 1990, Gaussian, Inc.),
 the Gaussian 88(TM) system (copyright 1988, Gaussian, Inc.),
 the Gaussian 86(TM) system (copyright 1986, Carnegie Mellon
 University), and the Gaussian 82(TM) system (copyright 1983,
 Carnegie Mellon University). Gaussian is a federally registered
 trademark of Gaussian, Inc.
  
 This software contains proprietary and confidential information,
 including trade secrets, belonging to Gaussian, Inc.
  
 This software is provided under written license and may be
 used, copied, transmitted, or stored only in accord with that
 written license.
  
 The following legend is applicable only to US Government
 contracts under FAR:
  
                    RESTRICTED RIGHTS LEGEND
  
 Use, reproduction and disclosure by the US Government is
 subject to restrictions as set forth in subparagraphs (a)
 and (c) of the Commercial Computer Software - Restricted
 Rights clause in FAR 52.227-19.
  
 Gaussian, Inc.
 340 Quinnipiac St., Bldg. 40, Wallingford CT 06492
  
  
 ---------------------------------------------------------------
 Warning -- This program may not be used in any manner that
 competes with the business of Gaussian, Inc. or will provide
 assistance to any competitor of Gaussian, Inc.  The licensee
 of this program is prohibited from giving any competitor of
 Gaussian, Inc. access to this program.  By using this program,
 the user acknowledges that Gaussian, Inc. is engaged in the
 business of creating and licensing software in the field of
 computational chemistry and represents and warrants to the
 licensee that it is not a competitor of Gaussian, Inc. and that
 it will not use this program in any manner prohibited above.
 ---------------------------------------------------------------
  

 Cite this work as:
 Gaussian 09, Revision D.01,
 M. J. Frisch, G. W. Trucks, H. B. Schlegel, G. E. Scuseria, 
 M. A. Robb, J. R. Cheeseman, G. Scalmani, V. Barone, B. Mennucci, 
 G. A. Petersson, H. Nakatsuji, M. Caricato, X. Li, H. P. Hratchian, 
 A. F. Izmaylov, J. Bloino, G. Zheng, J. L. Sonnenberg, M. Hada, 
 M. Ehara, K. Toyota, R. Fukuda, J. Hasegawa, M. Ishida, T. Nakajima, 
 Y. Honda, O. Kitao, H. Nakai, T. Vreven, J. A. Montgomery, Jr., 
 J. E. Peralta, F. Ogliaro, M. Bearpark, J. J. Heyd, E. Brothers, 
 K. N. Kudin, V. N. Staroverov, T. Keith, R. Kobayashi, J. Normand, 
 K. Raghavachari, A. Rendell, J. C. Burant, S. S. Iyengar, J. Tomasi, 
 M. Cossi, N. Rega, J. M. Millam, M. Klene, J. E. Knox, J. B. Cross, 
 V. Bakken, C. Adamo, J. Jaramillo, R. Gomperts, R. E. Stratmann, 
 O. Yazyev, A. J. Austin, R. Cammi, C. Pomelli, J. W. Ochterski, 
 R. L. Martin, K. Morokuma, V. G. Zakrzewski, G. A. Voth, 
 P. Salvador, J. J. Dannenberg, S. Dapprich, A. D. Daniels, 
 O. Farkas, J. B. Foresman, J. V. Ortiz, J. Cioslowski, 
 and D. J. Fox, Gaussian, Inc., Wallingford CT, 2013.
 
 ******************************************
 Gaussian 09:  ES64L-G09RevD.01 24-Apr-2013
                16-Sep-2020 
 ******************************************
 %nprocshared=4
 Will use up to    4 processors via shared memory.
 %chk=TS_4H2O_associated_cycloaddition_PM6_toluene_6.chk
 ----------------------------------------------------------------------
 # freq pm6 scrf=(cpcm,solvent=water) geom=connectivity empiricaldisper
 sion=gd3
 ----------------------------------------------------------------------
 1/10=4,30=1,38=1,57=2/1,3;
 2/12=2,17=6,18=5,40=1/2;
 3/5=2,16=1,25=1,41=3900000,70=2101,71=2,72=1,124=31,140=1/1,2,3;
 4/35=1/1;
 5/5=2,35=1,38=5,53=1,98=1/2;
 8/6=4,10=90,11=11/1;
 11/6=1,8=1,9=11,15=111,16=1/1,2,10;
 10/6=1/2;
 6/7=2,8=2,9=2,10=2,18=1,28=1/1;
 7/8=1,10=1,25=1/1,2,3,16;
 1/10=4,30=1/3;
 99//99;
 -------------------
 Title Card Required
 -------------------
 Symbolic Z-matrix:
 Charge =  0 Multiplicity = 1
 C                    -0.41757   0.56276   1.15641 
 C                    -0.85012   1.83929   0.28852 
 C                     1.43816   2.13274   0.7408 
 C                     1.02971   0.90274   1.57165 
 H                    -1.046    -0.07349   1.7822 
 H                     1.69585   0.16992   1.98976 
 C                     0.43022   2.34476  -0.39416 
 H                     0.34011   3.40685  -0.68487 
 H                     0.68822   1.7919   -1.31212 
 C                    -0.77586   2.18067   1.72242 
 H                    -1.58995   2.39183   2.39494 
 C                     0.69879   2.31948   2.08171 
 H                     1.05634   2.84458   2.9469 
 H                    -1.78936   1.81415  -0.27951 
 H                     2.47097   2.42299   0.59678 
 N                     0.53585  -0.6987   -1.04663 
 N                    -0.25939  -0.86454  -0.05008 
 C                     1.94821  -0.67084  -0.8262 
 C                    -1.65545  -1.13799  -0.47299 
 O                    -2.2199   -2.14771  -0.11539 
 O                     2.72369  -0.10091  -1.56652 
 O                    -2.19276  -0.13441  -1.19584 
 O                     2.35383  -1.43844   0.23918 
 C                     3.78568  -1.5163    0.5076 
 H                     3.82104  -2.09203   1.44165 
 H                     4.27937  -2.0461   -0.31267 
 H                     4.19333  -0.50977   0.6458 
 C                    -3.60249  -0.22661  -1.5783 
 H                    -3.64927  -0.74319  -2.54075 
 H                    -4.19243  -0.74239  -0.81071 
 H                    -3.88633   0.83717  -1.65577 
 O                    -4.61756  -2.52141   0.53244 
 H                    -3.95432  -2.14339   1.12039 
 H                    -4.11898  -3.01614  -0.12947 
 O                    -3.6589    2.78726  -0.70151 
 H                    -4.22534   2.9119    0.06374 
 H                    -3.75773   3.57836  -1.23604 
 O                     1.06476  -3.21171   1.55148 
 H                     1.61306  -3.30015   0.76396 
 H                     0.9253   -2.26361   1.66053 
 O                     5.04947   0.78444  -1.75584 
 H                     4.31502   1.17821  -1.27149 
 H                     4.67905   0.00396  -2.18511 
 

 GradGradGradGradGradGradGradGradGradGradGradGradGradGradGradGradGradGrad
 Berny optimization.
 Initialization pass.
 Trust Radius=3.00D-01 FncErr=1.00D-07 GrdErr=1.00D-07
 Number of steps in this run=      2 maximum allowed number of steps=      2.
 GradGradGradGradGradGradGradGradGradGradGradGradGradGradGradGradGradGrad

                          Input orientation:                          
 ---------------------------------------------------------------------
 Center     Atomic      Atomic             Coordinates (Angstroms)
 Number     Number       Type             X           Y           Z
 ---------------------------------------------------------------------
      1          6           0       -0.417567    0.562761    1.156411
      2          6           0       -0.850121    1.839289    0.288515
      3          6           0        1.438158    2.132735    0.740803
      4          6           0        1.029707    0.902743    1.571650
      5          1           0       -1.046004   -0.073494    1.782195
      6          1           0        1.695853    0.169918    1.989755
      7          6           0        0.430224    2.344759   -0.394159
      8          1           0        0.340114    3.406850   -0.684865
      9          1           0        0.688222    1.791899   -1.312116
     10          6           0       -0.775855    2.180669    1.722417
     11          1           0       -1.589951    2.391828    2.394938
     12          6           0        0.698794    2.319478    2.081713
     13          1           0        1.056341    2.844575    2.946904
     14          1           0       -1.789363    1.814154   -0.279514
     15          1           0        2.470968    2.422994    0.596778
     16          7           0        0.535846   -0.698698   -1.046631
     17          7           0       -0.259386   -0.864535   -0.050076
     18          6           0        1.948208   -0.670835   -0.826204
     19          6           0       -1.655451   -1.137992   -0.472985
     20          8           0       -2.219901   -2.147705   -0.115391
     21          8           0        2.723685   -0.100907   -1.566518
     22          8           0       -2.192759   -0.134414   -1.195835
     23          8           0        2.353834   -1.438444    0.239183
     24          6           0        3.785677   -1.516300    0.507602
     25          1           0        3.821039   -2.092026    1.441645
     26          1           0        4.279368   -2.046101   -0.312671
     27          1           0        4.193333   -0.509768    0.645799
     28          6           0       -3.602488   -0.226609   -1.578301
     29          1           0       -3.649273   -0.743188   -2.540749
     30          1           0       -4.192430   -0.742392   -0.810707
     31          1           0       -3.886333    0.837169   -1.655766
     32          8           0       -4.617556   -2.521412    0.532441
     33          1           0       -3.954317   -2.143391    1.120390
     34          1           0       -4.118978   -3.016142   -0.129468
     35          8           0       -3.658895    2.787264   -0.701510
     36          1           0       -4.225338    2.911902    0.063741
     37          1           0       -3.757731    3.578363   -1.236037
     38          8           0        1.064758   -3.211715    1.551479
     39          1           0        1.613058   -3.300154    0.763963
     40          1           0        0.925302   -2.263605    1.660526
     41          8           0        5.049471    0.784444   -1.755843
     42          1           0        4.315019    1.178206   -1.271493
     43          1           0        4.679051    0.003959   -2.185111
 ---------------------------------------------------------------------
                    Distance matrix (angstroms):
                    1          2          3          4          5
     1  C    0.000000
     2  C    1.603081   0.000000
     3  C    2.466022   2.350935   0.000000
     4  C    1.543572   2.461160   1.539487   0.000000
     5  H    1.091494   2.434787   3.481811   2.303463   0.000000
     6  H    2.305500   3.487549   2.340713   1.074986   2.760455
     7  C    2.509688   1.536498   1.532653   2.510616   3.572634
     8  H    3.471775   2.195763   2.204903   3.440632   4.485588
     9  H    2.971056   2.220533   2.212024   3.036991   4.007741
    10  C    1.751102   1.475849   2.422337   2.217178   2.271080
    11  H    2.500784   2.299927   3.460164   3.123745   2.597912
    12  C    2.277828   2.417701   1.542586   1.541689   2.976633
    13  H    3.253451   3.422313   2.349337   2.379652   3.780414
    14  H    2.347273   1.097936   3.399917   3.493513   2.892480
    15  H    3.480990   3.386055   1.082446   2.310578   4.472891
    16  N    2.711765   3.185106   3.467867   3.108683   3.300816
    17  N    1.875582   2.788239   3.534229   2.723055   2.145165
    18  C    3.324066   3.920965   3.252025   3.011560   4.015703
    19  C    2.660799   3.176892   4.662762   3.944009   2.567181
    20  O    3.494641   4.235039   5.695317   4.765637   3.046509
    21  O    4.209782   4.469631   3.459114   3.704723   5.042339
    22  O    3.028270   2.810956   4.698307   4.372523   3.191774
    23  O    3.539321   4.583808   3.720673   3.001656   3.975283
    24  C    4.733995   5.727006   4.345191   3.818290   5.201098
    25  H    5.009494   6.213267   4.900807   4.095983   5.280015
    26  H    5.570059   6.462920   5.161875   4.775630   6.053035
    27  H    4.761454   5.575137   3.818748   3.586212   5.378883
    28  C    4.271472   3.915158   6.029333   5.714443   4.225161
    29  H    5.081183   4.744383   6.702348   6.443118   5.090515
    30  H    4.452254   4.363988   6.509766   5.970997   4.131654
    31  H    4.473922   3.742066   5.980990   5.881153   4.551522
    32  O    5.247987   5.767909   7.640430   6.685535   4.506681
    33  H    4.453443   5.117596   6.892614   5.858589   3.630529
    34  H    5.306833   5.868164   7.625619   6.690323   4.664419
    35  O    4.348160   3.125383   5.337474   5.540908   4.602165
    36  H    4.605596   3.548677   5.756796   5.824604   4.687626
    37  H    5.096505   3.715216   5.744127   6.161299   5.458869
    38  O    4.074314   5.547475   5.418466   4.114657   3.789060
    39  H    4.381731   5.719019   5.435753   4.319375   4.303341
    40  H    3.169507   4.676353   4.520699   3.169315   2.949142
    41  O    6.198296   6.332242   4.592680   5.219646   7.099900
    42  H    5.354518   5.435929   3.638240   4.353460   6.295421
    43  H    6.119930   6.329218   4.857576   5.314017   6.965757
                    6          7          8          9         10
     6  H    0.000000
     7  C    3.466237   0.000000
     8  H    4.412409   1.104838   0.000000
     9  H    3.814249   1.102208   1.767113   0.000000
    10  C    3.197488   2.441607   2.922997   3.391615   0.000000
    11  H    3.987175   3.444181   3.773673   4.392293   1.076859
    12  C    2.371327   2.490524   2.994158   3.434607   1.524123
    13  H    2.911855   3.435774   3.744180   4.402600   2.301539
    14  H    4.472116   2.285006   2.689919   2.684248   2.273601
    15  H    2.759989   2.269959   2.674158   2.687069   3.444945
    16  N    3.364484   3.114403   4.126101   2.509337   4.204633
    17  N    3.008980   3.300534   4.359712   3.089878   3.561143
    18  C    2.949606   3.403637   4.385597   2.808689   4.695430
    19  C    4.359697   4.060272   4.968175   3.844633   4.075167
    20  O    5.013596   5.223323   6.142561   5.040814   4.919109
    21  O    3.711720   3.551855   4.331637   2.791155   5.316903
    22  O    5.036060   3.697164   4.383730   3.467601   3.985401
    23  O    2.466631   4.291156   5.327833   3.951697   5.009283
    24  C    3.067160   5.194229   6.126278   4.883624   5.995909
    25  H    3.151703   5.878168   6.846643   5.699352   6.282212
    26  H    4.109313   5.839709   6.737279   5.350277   6.896553
    27  H    2.916436   4.836406   5.653128   4.627840   5.752424
    28  C    6.400053   4.927159   5.435473   4.749255   4.967855
    29  H    7.066088   5.548474   6.048333   5.172047   5.914394
    30  H    6.583827   5.574311   6.146218   5.522210   5.160813
    31  H    6.700436   4.743115   5.040711   4.685740   4.784578
    32  O    7.016135   7.072361   7.823338   7.082254   6.187429
    33  H    6.166978   6.454576   7.246120   6.554141   5.400236
    34  H    6.960915   7.035948   7.838801   6.901093   6.450798
    35  O    6.539628   4.124460   4.046756   4.501224   3.815141
    36  H    6.803566   4.712280   4.652820   5.224027   3.896773
    37  H    7.194777   4.446291   4.138302   4.792050   4.426916
    38  O    3.467825   5.921363   7.023656   5.777379   5.700428
    39  H    3.681144   5.882634   6.978782   5.576238   6.055160
    40  H    2.573747   5.069897   6.164200   5.033877   4.759132
    41  O    5.064968   5.062234   5.495639   4.498039   6.926916
    42  H    4.302605   4.149963   4.594655   3.678577   5.990445
    43  H    5.133860   5.171014   5.714611   4.459323   7.054278
                   11         12         13         14         15
    11  H    0.000000
    12  C    2.311211   0.000000
    13  H    2.740895   1.073370   0.000000
    14  H    2.743386   3.467228   4.423751   0.000000
    15  H    4.441330   2.314379   2.775246   4.391924   0.000000
    16  N    5.090654   4.349997   5.364142   3.508488   4.023736
    17  N    4.283970   3.949756   4.946769   3.093355   4.322164
    18  C    5.681041   4.354192   5.233534   4.521446   3.445277
    19  C    4.548505   4.901331   5.908494   2.961508   5.554489
    20  O    5.225509   5.770769   6.710758   3.988562   6.588075
    21  O    6.365086   4.823695   5.641532   5.068672   3.333735
    22  O    4.431583   5.012483   6.049241   2.190728   5.612855
    23  O    5.905227   4.500672   5.230630   5.292875   3.879729
    24  C    6.908898   5.169126   5.693567   6.541601   4.153848
    25  H    7.091722   5.442377   5.854860   7.049627   4.787682
    26  H    7.840616   6.132851   6.703092   7.192507   4.906141
    27  H    6.702620   4.719988   5.136869   6.484556   3.401476
    28  C    5.166541   6.195102   7.184312   3.023075   6.974112
    29  H    6.199205   7.046472   8.070265   3.887473   7.571402
    30  H    5.183859   6.454860   7.384820   3.548637   7.510097
    31  H    4.909026   6.098310   7.045869   2.691812   6.928497
    32  O    6.064257   7.355137   8.174139   5.239759   8.642827
    33  H    5.270950   6.518649   7.302236   4.723232   7.900021
    34  H    6.481878   7.521243   8.402142   5.364828   8.575490
    35  O    3.744982   5.191783   5.962186   2.149459   6.276421
    36  H    3.556715   5.354461   6.017748   2.693854   6.735256
    37  H    4.392165   5.696742   6.419558   2.811022   6.594754
    38  O    6.257683   5.568588   6.214976   6.062829   5.885476
    39  H    6.731865   5.844023   6.544682   6.230687   5.789506
    40  H    5.342183   4.607966   5.269292   5.268897   5.048253
    41  O    7.993409   6.000963   6.504234   7.071740   3.855950
    42  H    7.055797   5.061973   5.584858   6.217068   2.905247
    43  H    8.122755   6.277727   6.894252   6.982012   4.297239
                   16         17         18         19         20
    16  N    0.000000
    17  N    1.285697   0.000000
    18  C    1.429731   2.348056   0.000000
    19  C    2.307343   1.484125   3.650939   0.000000
    20  O    3.249765   2.344016   4.478787   1.210784   0.000000
    21  O    2.326860   3.432410   1.214186   4.631219   5.543843
    22  O    2.790334   2.363001   4.191895   1.348474   2.285046
    23  O    2.346406   2.691089   1.374338   4.083114   4.641964
    24  C    3.693984   4.135014   2.422838   5.541709   6.070730
    25  H    4.350330   4.514624   3.266561   5.879450   6.238623
    26  H    4.045757   4.697376   2.754883   6.006034   6.503056
    27  H    4.034504   4.520709   2.689484   5.987873   6.662719
    28  C    4.198970   3.730784   5.619005   2.417291   2.782492
    29  H    4.444051   4.208267   5.854630   2.899456   3.146130
    30  H    4.734360   4.007782   6.141074   2.589752   2.519770
    31  H    4.720763   4.316107   6.083101   3.205786   3.749563
    32  O    5.689755   4.698746   6.955560   3.420351   2.511592
    33  H    5.190827   4.081419   6.387288   2.972281   2.129641
    34  H    5.280068   4.419521   6.541915   3.116796   2.088271
    35  O    5.465061   5.031567   6.588900   4.412895   5.173795
    36  H    6.077683   5.477518   7.193099   4.826389   5.445502
    37  H    6.063327   5.777912   7.126106   5.219754   6.033956
    38  O    3.653105   3.134899   3.590255   3.974710   3.834000
    39  H    3.347568   3.178199   3.090999   4.109518   4.097923
    40  H    3.151081   2.507397   3.125233   3.532585   3.613809
    41  O    4.803697   5.814872   3.549633   7.092070   8.008268
    42  H    4.225575   5.156533   3.036285   6.453596   7.423169
    43  H    4.353850   5.449846   3.124016   6.660431   7.517243
                   21         22         23         24         25
    21  O    0.000000
    22  O    4.930512   0.000000
    23  O    2.277356   4.942801   0.000000
    24  C    2.726378   6.368124   1.458864   0.000000
    25  H    3.770648   6.852322   2.006433   1.097792   0.000000
    26  H    2.788559   6.806097   2.093196   1.094197   1.813780
    27  H    2.687262   6.656927   2.100365   1.094709   1.809838
    28  C    6.327433   1.463597   6.344254   7.784554   8.228524
    29  H    6.478908   2.073845   6.651969   8.072709   8.572304
    30  H    6.986802   2.125240   6.666358   8.123242   8.432692
    31  H    6.676847   2.005917   6.907165   8.311361   8.807822
    32  O    8.009887   3.816325   7.061098   8.463167   8.498289
    33  H    7.482441   3.536096   6.408295   7.789497   7.782159
    34  H    7.575338   3.626543   6.672506   8.070871   8.146549
    35  O    7.058831   3.306072   7.409077   8.683563   9.184225
    36  H    7.747495   3.872719   7.889347   9.164188   9.575077
    37  H    7.460228   4.029326   8.043373   9.268164   9.836719
    38  O    4.706492   5.256323   2.555059   3.371574   2.977054
    39  H    4.110939   5.324186   2.071257   2.822788   2.606531
    40  H    4.280801   4.734401   2.177570   3.173239   2.909062
    41  O    2.495791   7.321735   4.023409   3.466090   4.472925
    42  H    2.062890   6.639267   3.602117   3.271963   4.277797
    43  H    2.053560   6.944032   3.655730   3.218697   4.275827
                   26         27         28         29         30
    26  H    0.000000
    27  H    1.812839   0.000000
    28  C    8.187553   8.111820   0.000000
    29  H    8.338181   8.468473   1.093320   0.000000
    30  H    8.585980   8.514490   1.096934   1.813302   0.000000
    31  H    8.763323   8.508375   1.103718   1.826724   1.817370
    32  O    8.949603   9.038325   3.278981   3.680238   2.269293
    33  H    8.358032   8.323350   3.328779   3.931610   2.397630
    34  H    8.456167   8.716505   3.185494   3.346822   2.374746
    35  O    9.302077   8.622247   3.139327   3.980827   3.571422
    36  H    9.851574   9.106077   3.596456   4.524920   3.757607
    37  H    9.853028   9.136386   3.823488   4.515511   4.363346
    38  O    3.894538   4.231874   6.363141   6.712827   6.270208
    39  H    3.137037   3.802372   6.491132   6.719473   6.536469
    40  H    3.897509   3.845210   5.927920   6.394460   5.883219
    41  O    3.269218   2.859343   8.712643   8.866673   9.414735
    42  H    3.364040   2.557357   8.047021   8.290519   8.733711
    43  H    2.805089   2.917857   8.306941   8.369330   9.008285
                   31         32         33         34         35
    31  H    0.000000
    32  O    4.074678   0.000000
    33  H    4.073745   0.963571   0.000000
    34  H    4.151110   0.965122   1.533282   0.000000
    35  O    2.182935   5.533869   5.264784   5.849652   0.000000
    36  H    2.715906   5.467579   5.171648   5.932145   0.960209
    37  H    2.776122   6.408905   6.191112   6.696454   0.959857
    38  O    7.154941   5.814091   5.149589   5.452976   7.960943
    39  H    7.294918   6.283358   5.697438   5.808194   8.185216
    40  H    6.615468   5.662359   4.910894   5.405104   7.218404
    41  O    8.936520  10.469782   9.895106  10.057336   8.997697
    42  H    8.217429   9.835255   9.226919   9.488366   8.154585
    43  H    8.622079  10.009470   9.490653   9.526384   8.914550
                   36         37         38         39         40
    36  H    0.000000
    37  H    1.533704   0.000000
    38  O    8.227829   8.782471   0.000000
    39  H    8.553760   8.953177   0.963658   0.000000
    40  H    7.474268   8.028042   0.964496   1.533384   0.000000
    41  O    9.688088   9.254350   6.541070   5.902736   6.162057
    42  H    8.816249   8.422072   6.148559   5.612431   5.650927
    43  H    9.633359   9.211753   6.112755   5.386512   5.832787
                   41         42         43
    41  O    0.000000
    42  H    0.963879   0.000000
    43  H    0.964696   1.531690   0.000000
 Stoichiometry    C11H22N2O8
 Framework group  C1[X(C11H22N2O8)]
 Deg. of freedom   123
 Full point group                 C1      NOp   1
 Largest Abelian subgroup         C1      NOp   1
 Largest concise Abelian subgroup C1      NOp   1
                         Standard orientation:                         
 ---------------------------------------------------------------------
 Center     Atomic      Atomic             Coordinates (Angstroms)
 Number     Number       Type             X           Y           Z
 ---------------------------------------------------------------------
      1          6           0       -0.417567    0.562761    1.156411
      2          6           0       -0.850121    1.839289    0.288515
      3          6           0        1.438158    2.132735    0.740803
      4          6           0        1.029707    0.902743    1.571650
      5          1           0       -1.046004   -0.073494    1.782195
      6          1           0        1.695853    0.169918    1.989755
      7          6           0        0.430224    2.344759   -0.394159
      8          1           0        0.340114    3.406850   -0.684865
      9          1           0        0.688222    1.791899   -1.312116
     10          6           0       -0.775855    2.180669    1.722417
     11          1           0       -1.589951    2.391828    2.394938
     12          6           0        0.698794    2.319478    2.081713
     13          1           0        1.056341    2.844575    2.946904
     14          1           0       -1.789363    1.814154   -0.279514
     15          1           0        2.470968    2.422994    0.596778
     16          7           0        0.535846   -0.698698   -1.046631
     17          7           0       -0.259386   -0.864535   -0.050076
     18          6           0        1.948208   -0.670835   -0.826204
     19          6           0       -1.655451   -1.137992   -0.472985
     20          8           0       -2.219901   -2.147705   -0.115391
     21          8           0        2.723685   -0.100907   -1.566518
     22          8           0       -2.192759   -0.134414   -1.195835
     23          8           0        2.353834   -1.438444    0.239183
     24          6           0        3.785677   -1.516300    0.507602
     25          1           0        3.821039   -2.092026    1.441645
     26          1           0        4.279368   -2.046101   -0.312671
     27          1           0        4.193333   -0.509768    0.645799
     28          6           0       -3.602488   -0.226609   -1.578301
     29          1           0       -3.649273   -0.743188   -2.540749
     30          1           0       -4.192430   -0.742392   -0.810707
     31          1           0       -3.886333    0.837169   -1.655766
     32          8           0       -4.617556   -2.521412    0.532441
     33          1           0       -3.954317   -2.143391    1.120390
     34          1           0       -4.118978   -3.016142   -0.129468
     35          8           0       -3.658895    2.787264   -0.701510
     36          1           0       -4.225338    2.911902    0.063741
     37          1           0       -3.757731    3.578363   -1.236037
     38          8           0        1.064758   -3.211715    1.551479
     39          1           0        1.613058   -3.300154    0.763963
     40          1           0        0.925302   -2.263605    1.660526
     41          8           0        5.049471    0.784444   -1.755843
     42          1           0        4.315019    1.178206   -1.271493
     43          1           0        4.679051    0.003959   -2.185111
 ---------------------------------------------------------------------
 Rotational constants (GHZ):      0.3643922      0.2055741      0.1675811
 Standard basis: VSTO-6G (5D, 7F)
 There are   106 symmetry adapted cartesian basis functions of A   symmetry.
 There are   106 symmetry adapted basis functions of A   symmetry.
   106 basis functions,   636 primitive gaussians,   106 cartesian basis functions
    62 alpha electrons       62 beta electrons
       nuclear repulsion energy      1149.9190486830 Hartrees.
 Integral buffers will be    131072 words long.
 Regular integral format.
 Two-electron integral symmetry is turned off.
 Nuclear repulsion after empirical dispersion term =     1149.9009693017 Hartrees.
 Force inversion solution in PCM.
 ------------------------------------------------------------------------------
 Polarizable Continuum Model (PCM)
 =================================
 Model                : C-PCM.
 Atomic radii         : UFF (Universal Force Field).
 Polarization charges : Total charges.
 Charge compensation  : None.
 Solution method      : Matrix inversion.
 Cavity type          : Scaled VdW (van der Waals Surface) (Alpha=1.100).
 Cavity algorithm     : GePol (No added spheres)
                        Default sphere list used, NSphG=   43.
                        Lebedev-Laikov grids with approx.  5.0 points / Ang**2.
                        Smoothing algorithm: Karplus/York (Gamma=1.0000).
                        Polarization charges: spherical gaussians, with
                                              point-specific exponents (IZeta= 3).
                        Self-potential: point-specific (ISelfS= 7).
                        Self-field    : sphere-specific E.n sum rule (ISelfD= 2).
 1st derivatives      : Analytical E(r).r(x)/FMM algorithm (CHGder, D1EAlg=3).
                        Cavity 1st derivative terms included.
 2nd derivatives      : Analytical E(r).r(xy)/FMM algorithm (CHGder, D2EAlg=3).
                        Cavity 2nd derivative terms included.
 Solvent              : Water, Eps=  78.355300 Eps(inf)=   1.777849
 ------------------------------------------------------------------------------
 Do NDO integrals.
 One-electron integrals computed using PRISM.
 NBasis=   106 RedAO= F EigKep=  0.00D+00  NBF=   106
 NBsUse=   106 1.00D-04 EigRej=  0.00D+00 NBFU=   106
 Simple Huckel Guess.
 Overlap will be assumed to be unity.
 Keep J ints in memory in canonical form, NReq=13837934.
 Requested convergence on RMS density matrix=1.00D-08 within 128 cycles.
 Requested convergence on MAX density matrix=1.00D-06.
 Requested convergence on             energy=1.00D-06.
 No special actions if energy rises.
 Inv3:  Mode=2 IEnd=    19306898.
 Iteration    1 A*A^-1 deviation from unit magnitude is 6.88D-15 for    756.
 Iteration    1 A*A^-1 deviation from orthogonality  is 5.10D-15 for   3089    331.
 Iteration    1 A^-1*A deviation from unit magnitude is 6.88D-15 for    756.
 Iteration    1 A^-1*A deviation from orthogonality  is 3.22D-15 for   3091   3026.
 Error on total polarization charges = -0.00039
 SCF Done:  E(RPM6D3) = -0.426249280006     A.U. after   19 cycles
            NFock= 18  Conv=0.44D-08     -V/T= 0.9947
 Range of M.O.s used for correlation:     1   106
 NBasis=   106 NAE=    62 NBE=    62 NFC=     0 NFV=     0
 NROrb=    106 NOA=    62 NOB=    62 NVA=    44 NVB=    44
 Symmetrizing basis deriv contribution to polar:
 IMax=3 JMax=2 DiffMx= 0.00D+00
 G2DrvN: will do    44 centers at a time, making    1 passes.
 Calling FoFCou, ICntrl=  3107 FMM=F I1Cent=   0 AccDes= 0.00D+00.
 NEqPCM:  Using equilibrium solvation (IEInf=0, Eps=  78.3553, EpsInf=   1.7778)
 G2PCM: DoFxE=T DoFxN=T DoGrad=T DoDP/DQ/DG/TGxP=FFFF NFrqRd=   0 IEInf=0 SqF1=F DoCFld=F IF1Alg=4.
 CoulSu:  requested number of processors reduced to:   3 ShMem   1 Linda.
 End of G2Drv F.D. properties file   721 does not exist.
 End of G2Drv F.D. properties file   722 does not exist.
 End of G2Drv F.D. properties file   788 does not exist.
          IDoAtm=1111111111111111111111111111111111111111111
 NEqPCM:  Using equilibrium solvation (IEInf=0, Eps=  78.3553, EpsInf=   1.7778)
          Differentiating once with respect to electric field.
                with respect to dipole field.
          Differentiating once with respect to nuclear coordinates.
          Electric field/nuclear overlap derivatives assumed to be zero.
 Keep J ints in memory in canonical form, NReq=22485916.
          There are   132 degrees of freedom in the 1st order CPHF.  IDoFFX=5 NUNeed=   132.
 LinEq1:  Iter=  0 NonCon=   132 RMS=1.64D-01 Max=5.53D+00 NDo=   132
 AX will form   132 AO Fock derivatives at one time.
 LinEq1:  Iter=  1 NonCon=   132 RMS=3.59D-02 Max=8.17D-01 NDo=   132
 LinEq1:  Iter=  2 NonCon=   132 RMS=9.47D-03 Max=2.27D-01 NDo=   132
 LinEq1:  Iter=  3 NonCon=   132 RMS=1.68D-03 Max=2.15D-02 NDo=   132
 LinEq1:  Iter=  4 NonCon=   132 RMS=4.14D-04 Max=8.43D-03 NDo=   132
 LinEq1:  Iter=  5 NonCon=   132 RMS=8.29D-05 Max=1.31D-03 NDo=   132
 LinEq1:  Iter=  6 NonCon=   132 RMS=1.66D-05 Max=1.81D-04 NDo=   132
 LinEq1:  Iter=  7 NonCon=    89 RMS=2.89D-06 Max=3.92D-05 NDo=   132
 LinEq1:  Iter=  8 NonCon=    32 RMS=4.99D-07 Max=7.44D-06 NDo=   132
 LinEq1:  Iter=  9 NonCon=     3 RMS=8.05D-08 Max=1.45D-06 NDo=   132
 LinEq1:  Iter= 10 NonCon=     3 RMS=1.30D-08 Max=1.43D-07 NDo=   132
 LinEq1:  Iter= 11 NonCon=     0 RMS=2.17D-09 Max=2.77D-08 NDo=   132
 Linear equations converged to 1.000D-08 1.000D-07 after    11 iterations.
 Isotropic polarizability for W=    0.000000      229.80 Bohr**3.
 End of Minotr F.D. properties file   721 does not exist.
 End of Minotr F.D. properties file   722 does not exist.
 End of Minotr F.D. properties file   788 does not exist.

 **********************************************************************

            Population analysis using the SCF density.

 **********************************************************************

 Orbital symmetries:
       Occupied  (A) (A) (A) (A) (A) (A) (A) (A) (A) (A) (A) (A)
                 (A) (A) (A) (A) (A) (A) (A) (A) (A) (A) (A) (A)
                 (A) (A) (A) (A) (A) (A) (A) (A) (A) (A) (A) (A)
                 (A) (A) (A) (A) (A) (A) (A) (A) (A) (A) (A) (A)
                 (A) (A) (A) (A) (A) (A) (A) (A) (A) (A) (A) (A)
                 (A) (A)
       Virtual   (A) (A) (A) (A) (A) (A) (A) (A) (A) (A) (A) (A)
                 (A) (A) (A) (A) (A) (A) (A) (A) (A) (A) (A) (A)
                 (A) (A) (A) (A) (A) (A) (A) (A) (A) (A) (A) (A)
                 (A) (A) (A) (A) (A) (A) (A) (A)
 The electronic state is 1-A.
 Alpha  occ. eigenvalues --   -1.27724  -1.23646  -1.21438  -1.20043  -1.16369
 Alpha  occ. eigenvalues --   -1.14303  -1.11080  -1.10642  -1.10322  -1.10281
 Alpha  occ. eigenvalues --   -1.04006  -0.99105  -0.95914  -0.95530  -0.92180
 Alpha  occ. eigenvalues --   -0.86204  -0.82469  -0.76775  -0.75209  -0.73231
 Alpha  occ. eigenvalues --   -0.72364  -0.70116  -0.69329  -0.69097  -0.68670
 Alpha  occ. eigenvalues --   -0.68463  -0.68021  -0.65572  -0.64422  -0.63869
 Alpha  occ. eigenvalues --   -0.62768  -0.61504  -0.58685  -0.57487  -0.56645
 Alpha  occ. eigenvalues --   -0.55657  -0.55124  -0.54681  -0.53632  -0.53331
 Alpha  occ. eigenvalues --   -0.52942  -0.52371  -0.52303  -0.52104  -0.51035
 Alpha  occ. eigenvalues --   -0.49848  -0.49649  -0.48937  -0.48034  -0.46211
 Alpha  occ. eigenvalues --   -0.45702  -0.45131  -0.44561  -0.44405  -0.44255
 Alpha  occ. eigenvalues --   -0.44056  -0.43911  -0.43628  -0.43498  -0.42106
 Alpha  occ. eigenvalues --   -0.39006  -0.33227
 Alpha virt. eigenvalues --   -0.07763  -0.01279  -0.00680   0.00801   0.02239
 Alpha virt. eigenvalues --    0.03859   0.05799   0.07228   0.07658   0.09026
 Alpha virt. eigenvalues --    0.09283   0.09805   0.10557   0.10674   0.11216
 Alpha virt. eigenvalues --    0.11954   0.13015   0.13233   0.13808   0.14524
 Alpha virt. eigenvalues --    0.14698   0.14845   0.15605   0.15923   0.16084
 Alpha virt. eigenvalues --    0.16994   0.18318   0.18361   0.18551   0.18849
 Alpha virt. eigenvalues --    0.18961   0.19382   0.19706   0.19910   0.19999
 Alpha virt. eigenvalues --    0.20365   0.20700   0.20728   0.20886   0.21632
 Alpha virt. eigenvalues --    0.22042   0.22281   0.22417   0.22593
          Condensed to atoms (all electrons):
               1          2          3          4          5          6
     1  C    4.274966   0.000000   0.000000   0.000000   0.000000   0.000000
     2  C    0.000000   4.049235   0.000000   0.000000   0.000000   0.000000
     3  C    0.000000   0.000000   4.118229   0.000000   0.000000   0.000000
     4  C    0.000000   0.000000   0.000000   4.150048   0.000000   0.000000
     5  H    0.000000   0.000000   0.000000   0.000000   0.801964   0.000000
     6  H    0.000000   0.000000   0.000000   0.000000   0.000000   0.821509
     7  C    0.000000   0.000000   0.000000   0.000000   0.000000   0.000000
     8  H    0.000000   0.000000   0.000000   0.000000   0.000000   0.000000
     9  H    0.000000   0.000000   0.000000   0.000000   0.000000   0.000000
    10  C    0.000000   0.000000   0.000000   0.000000   0.000000   0.000000
    11  H    0.000000   0.000000   0.000000   0.000000   0.000000   0.000000
    12  C    0.000000   0.000000   0.000000   0.000000   0.000000   0.000000
    13  H    0.000000   0.000000   0.000000   0.000000   0.000000   0.000000
    14  H    0.000000   0.000000   0.000000   0.000000   0.000000   0.000000
    15  H    0.000000   0.000000   0.000000   0.000000   0.000000   0.000000
    16  N    0.000000   0.000000   0.000000   0.000000   0.000000   0.000000
    17  N    0.000000   0.000000   0.000000   0.000000   0.000000   0.000000
    18  C    0.000000   0.000000   0.000000   0.000000   0.000000   0.000000
    19  C    0.000000   0.000000   0.000000   0.000000   0.000000   0.000000
    20  O    0.000000   0.000000   0.000000   0.000000   0.000000   0.000000
    21  O    0.000000   0.000000   0.000000   0.000000   0.000000   0.000000
    22  O    0.000000   0.000000   0.000000   0.000000   0.000000   0.000000
    23  O    0.000000   0.000000   0.000000   0.000000   0.000000   0.000000
    24  C    0.000000   0.000000   0.000000   0.000000   0.000000   0.000000
    25  H    0.000000   0.000000   0.000000   0.000000   0.000000   0.000000
    26  H    0.000000   0.000000   0.000000   0.000000   0.000000   0.000000
    27  H    0.000000   0.000000   0.000000   0.000000   0.000000   0.000000
    28  C    0.000000   0.000000   0.000000   0.000000   0.000000   0.000000
    29  H    0.000000   0.000000   0.000000   0.000000   0.000000   0.000000
    30  H    0.000000   0.000000   0.000000   0.000000   0.000000   0.000000
    31  H    0.000000   0.000000   0.000000   0.000000   0.000000   0.000000
    32  O    0.000000   0.000000   0.000000   0.000000   0.000000   0.000000
    33  H    0.000000   0.000000   0.000000   0.000000   0.000000   0.000000
    34  H    0.000000   0.000000   0.000000   0.000000   0.000000   0.000000
    35  O    0.000000   0.000000   0.000000   0.000000   0.000000   0.000000
    36  H    0.000000   0.000000   0.000000   0.000000   0.000000   0.000000
    37  H    0.000000   0.000000   0.000000   0.000000   0.000000   0.000000
    38  O    0.000000   0.000000   0.000000   0.000000   0.000000   0.000000
    39  H    0.000000   0.000000   0.000000   0.000000   0.000000   0.000000
    40  H    0.000000   0.000000   0.000000   0.000000   0.000000   0.000000
    41  O    0.000000   0.000000   0.000000   0.000000   0.000000   0.000000
    42  H    0.000000   0.000000   0.000000   0.000000   0.000000   0.000000
    43  H    0.000000   0.000000   0.000000   0.000000   0.000000   0.000000
               7          8          9         10         11         12
     1  C    0.000000   0.000000   0.000000   0.000000   0.000000   0.000000
     2  C    0.000000   0.000000   0.000000   0.000000   0.000000   0.000000
     3  C    0.000000   0.000000   0.000000   0.000000   0.000000   0.000000
     4  C    0.000000   0.000000   0.000000   0.000000   0.000000   0.000000
     5  H    0.000000   0.000000   0.000000   0.000000   0.000000   0.000000
     6  H    0.000000   0.000000   0.000000   0.000000   0.000000   0.000000
     7  C    4.278086   0.000000   0.000000   0.000000   0.000000   0.000000
     8  H    0.000000   0.830315   0.000000   0.000000   0.000000   0.000000
     9  H    0.000000   0.000000   0.827966   0.000000   0.000000   0.000000
    10  C    0.000000   0.000000   0.000000   4.001667   0.000000   0.000000
    11  H    0.000000   0.000000   0.000000   0.000000   0.820608   0.000000
    12  C    0.000000   0.000000   0.000000   0.000000   0.000000   4.214306
    13  H    0.000000   0.000000   0.000000   0.000000   0.000000   0.000000
    14  H    0.000000   0.000000   0.000000   0.000000   0.000000   0.000000
    15  H    0.000000   0.000000   0.000000   0.000000   0.000000   0.000000
    16  N    0.000000   0.000000   0.000000   0.000000   0.000000   0.000000
    17  N    0.000000   0.000000   0.000000   0.000000   0.000000   0.000000
    18  C    0.000000   0.000000   0.000000   0.000000   0.000000   0.000000
    19  C    0.000000   0.000000   0.000000   0.000000   0.000000   0.000000
    20  O    0.000000   0.000000   0.000000   0.000000   0.000000   0.000000
    21  O    0.000000   0.000000   0.000000   0.000000   0.000000   0.000000
    22  O    0.000000   0.000000   0.000000   0.000000   0.000000   0.000000
    23  O    0.000000   0.000000   0.000000   0.000000   0.000000   0.000000
    24  C    0.000000   0.000000   0.000000   0.000000   0.000000   0.000000
    25  H    0.000000   0.000000   0.000000   0.000000   0.000000   0.000000
    26  H    0.000000   0.000000   0.000000   0.000000   0.000000   0.000000
    27  H    0.000000   0.000000   0.000000   0.000000   0.000000   0.000000
    28  C    0.000000   0.000000   0.000000   0.000000   0.000000   0.000000
    29  H    0.000000   0.000000   0.000000   0.000000   0.000000   0.000000
    30  H    0.000000   0.000000   0.000000   0.000000   0.000000   0.000000
    31  H    0.000000   0.000000   0.000000   0.000000   0.000000   0.000000
    32  O    0.000000   0.000000   0.000000   0.000000   0.000000   0.000000
    33  H    0.000000   0.000000   0.000000   0.000000   0.000000   0.000000
    34  H    0.000000   0.000000   0.000000   0.000000   0.000000   0.000000
    35  O    0.000000   0.000000   0.000000   0.000000   0.000000   0.000000
    36  H    0.000000   0.000000   0.000000   0.000000   0.000000   0.000000
    37  H    0.000000   0.000000   0.000000   0.000000   0.000000   0.000000
    38  O    0.000000   0.000000   0.000000   0.000000   0.000000   0.000000
    39  H    0.000000   0.000000   0.000000   0.000000   0.000000   0.000000
    40  H    0.000000   0.000000   0.000000   0.000000   0.000000   0.000000
    41  O    0.000000   0.000000   0.000000   0.000000   0.000000   0.000000
    42  H    0.000000   0.000000   0.000000   0.000000   0.000000   0.000000
    43  H    0.000000   0.000000   0.000000   0.000000   0.000000   0.000000
              13         14         15         16         17         18
     1  C    0.000000   0.000000   0.000000   0.000000   0.000000   0.000000
     2  C    0.000000   0.000000   0.000000   0.000000   0.000000   0.000000
     3  C    0.000000   0.000000   0.000000   0.000000   0.000000   0.000000
     4  C    0.000000   0.000000   0.000000   0.000000   0.000000   0.000000
     5  H    0.000000   0.000000   0.000000   0.000000   0.000000   0.000000
     6  H    0.000000   0.000000   0.000000   0.000000   0.000000   0.000000
     7  C    0.000000   0.000000   0.000000   0.000000   0.000000   0.000000
     8  H    0.000000   0.000000   0.000000   0.000000   0.000000   0.000000
     9  H    0.000000   0.000000   0.000000   0.000000   0.000000   0.000000
    10  C    0.000000   0.000000   0.000000   0.000000   0.000000   0.000000
    11  H    0.000000   0.000000   0.000000   0.000000   0.000000   0.000000
    12  C    0.000000   0.000000   0.000000   0.000000   0.000000   0.000000
    13  H    0.814303   0.000000   0.000000   0.000000   0.000000   0.000000
    14  H    0.000000   0.794393   0.000000   0.000000   0.000000   0.000000
    15  H    0.000000   0.000000   0.830065   0.000000   0.000000   0.000000
    16  N    0.000000   0.000000   0.000000   5.404875   0.000000   0.000000
    17  N    0.000000   0.000000   0.000000   0.000000   5.049844   0.000000
    18  C    0.000000   0.000000   0.000000   0.000000   0.000000   3.264609
    19  C    0.000000   0.000000   0.000000   0.000000   0.000000   0.000000
    20  O    0.000000   0.000000   0.000000   0.000000   0.000000   0.000000
    21  O    0.000000   0.000000   0.000000   0.000000   0.000000   0.000000
    22  O    0.000000   0.000000   0.000000   0.000000   0.000000   0.000000
    23  O    0.000000   0.000000   0.000000   0.000000   0.000000   0.000000
    24  C    0.000000   0.000000   0.000000   0.000000   0.000000   0.000000
    25  H    0.000000   0.000000   0.000000   0.000000   0.000000   0.000000
    26  H    0.000000   0.000000   0.000000   0.000000   0.000000   0.000000
    27  H    0.000000   0.000000   0.000000   0.000000   0.000000   0.000000
    28  C    0.000000   0.000000   0.000000   0.000000   0.000000   0.000000
    29  H    0.000000   0.000000   0.000000   0.000000   0.000000   0.000000
    30  H    0.000000   0.000000   0.000000   0.000000   0.000000   0.000000
    31  H    0.000000   0.000000   0.000000   0.000000   0.000000   0.000000
    32  O    0.000000   0.000000   0.000000   0.000000   0.000000   0.000000
    33  H    0.000000   0.000000   0.000000   0.000000   0.000000   0.000000
    34  H    0.000000   0.000000   0.000000   0.000000   0.000000   0.000000
    35  O    0.000000   0.000000   0.000000   0.000000   0.000000   0.000000
    36  H    0.000000   0.000000   0.000000   0.000000   0.000000   0.000000
    37  H    0.000000   0.000000   0.000000   0.000000   0.000000   0.000000
    38  O    0.000000   0.000000   0.000000   0.000000   0.000000   0.000000
    39  H    0.000000   0.000000   0.000000   0.000000   0.000000   0.000000
    40  H    0.000000   0.000000   0.000000   0.000000   0.000000   0.000000
    41  O    0.000000   0.000000   0.000000   0.000000   0.000000   0.000000
    42  H    0.000000   0.000000   0.000000   0.000000   0.000000   0.000000
    43  H    0.000000   0.000000   0.000000   0.000000   0.000000   0.000000
              19         20         21         22         23         24
     1  C    0.000000   0.000000   0.000000   0.000000   0.000000   0.000000
     2  C    0.000000   0.000000   0.000000   0.000000   0.000000   0.000000
     3  C    0.000000   0.000000   0.000000   0.000000   0.000000   0.000000
     4  C    0.000000   0.000000   0.000000   0.000000   0.000000   0.000000
     5  H    0.000000   0.000000   0.000000   0.000000   0.000000   0.000000
     6  H    0.000000   0.000000   0.000000   0.000000   0.000000   0.000000
     7  C    0.000000   0.000000   0.000000   0.000000   0.000000   0.000000
     8  H    0.000000   0.000000   0.000000   0.000000   0.000000   0.000000
     9  H    0.000000   0.000000   0.000000   0.000000   0.000000   0.000000
    10  C    0.000000   0.000000   0.000000   0.000000   0.000000   0.000000
    11  H    0.000000   0.000000   0.000000   0.000000   0.000000   0.000000
    12  C    0.000000   0.000000   0.000000   0.000000   0.000000   0.000000
    13  H    0.000000   0.000000   0.000000   0.000000   0.000000   0.000000
    14  H    0.000000   0.000000   0.000000   0.000000   0.000000   0.000000
    15  H    0.000000   0.000000   0.000000   0.000000   0.000000   0.000000
    16  N    0.000000   0.000000   0.000000   0.000000   0.000000   0.000000
    17  N    0.000000   0.000000   0.000000   0.000000   0.000000   0.000000
    18  C    0.000000   0.000000   0.000000   0.000000   0.000000   0.000000
    19  C    3.310391   0.000000   0.000000   0.000000   0.000000   0.000000
    20  O    0.000000   6.539936   0.000000   0.000000   0.000000   0.000000
    21  O    0.000000   0.000000   6.571270   0.000000   0.000000   0.000000
    22  O    0.000000   0.000000   0.000000   6.396607   0.000000   0.000000
    23  O    0.000000   0.000000   0.000000   0.000000   6.463548   0.000000
    24  C    0.000000   0.000000   0.000000   0.000000   0.000000   4.175110
    25  H    0.000000   0.000000   0.000000   0.000000   0.000000   0.000000
    26  H    0.000000   0.000000   0.000000   0.000000   0.000000   0.000000
    27  H    0.000000   0.000000   0.000000   0.000000   0.000000   0.000000
    28  C    0.000000   0.000000   0.000000   0.000000   0.000000   0.000000
    29  H    0.000000   0.000000   0.000000   0.000000   0.000000   0.000000
    30  H    0.000000   0.000000   0.000000   0.000000   0.000000   0.000000
    31  H    0.000000   0.000000   0.000000   0.000000   0.000000   0.000000
    32  O    0.000000   0.000000   0.000000   0.000000   0.000000   0.000000
    33  H    0.000000   0.000000   0.000000   0.000000   0.000000   0.000000
    34  H    0.000000   0.000000   0.000000   0.000000   0.000000   0.000000
    35  O    0.000000   0.000000   0.000000   0.000000   0.000000   0.000000
    36  H    0.000000   0.000000   0.000000   0.000000   0.000000   0.000000
    37  H    0.000000   0.000000   0.000000   0.000000   0.000000   0.000000
    38  O    0.000000   0.000000   0.000000   0.000000   0.000000   0.000000
    39  H    0.000000   0.000000   0.000000   0.000000   0.000000   0.000000
    40  H    0.000000   0.000000   0.000000   0.000000   0.000000   0.000000
    41  O    0.000000   0.000000   0.000000   0.000000   0.000000   0.000000
    42  H    0.000000   0.000000   0.000000   0.000000   0.000000   0.000000
    43  H    0.000000   0.000000   0.000000   0.000000   0.000000   0.000000
              25         26         27         28         29         30
     1  C    0.000000   0.000000   0.000000   0.000000   0.000000   0.000000
     2  C    0.000000   0.000000   0.000000   0.000000   0.000000   0.000000
     3  C    0.000000   0.000000   0.000000   0.000000   0.000000   0.000000
     4  C    0.000000   0.000000   0.000000   0.000000   0.000000   0.000000
     5  H    0.000000   0.000000   0.000000   0.000000   0.000000   0.000000
     6  H    0.000000   0.000000   0.000000   0.000000   0.000000   0.000000
     7  C    0.000000   0.000000   0.000000   0.000000   0.000000   0.000000
     8  H    0.000000   0.000000   0.000000   0.000000   0.000000   0.000000
     9  H    0.000000   0.000000   0.000000   0.000000   0.000000   0.000000
    10  C    0.000000   0.000000   0.000000   0.000000   0.000000   0.000000
    11  H    0.000000   0.000000   0.000000   0.000000   0.000000   0.000000
    12  C    0.000000   0.000000   0.000000   0.000000   0.000000   0.000000
    13  H    0.000000   0.000000   0.000000   0.000000   0.000000   0.000000
    14  H    0.000000   0.000000   0.000000   0.000000   0.000000   0.000000
    15  H    0.000000   0.000000   0.000000   0.000000   0.000000   0.000000
    16  N    0.000000   0.000000   0.000000   0.000000   0.000000   0.000000
    17  N    0.000000   0.000000   0.000000   0.000000   0.000000   0.000000
    18  C    0.000000   0.000000   0.000000   0.000000   0.000000   0.000000
    19  C    0.000000   0.000000   0.000000   0.000000   0.000000   0.000000
    20  O    0.000000   0.000000   0.000000   0.000000   0.000000   0.000000
    21  O    0.000000   0.000000   0.000000   0.000000   0.000000   0.000000
    22  O    0.000000   0.000000   0.000000   0.000000   0.000000   0.000000
    23  O    0.000000   0.000000   0.000000   0.000000   0.000000   0.000000
    24  C    0.000000   0.000000   0.000000   0.000000   0.000000   0.000000
    25  H    0.825789   0.000000   0.000000   0.000000   0.000000   0.000000
    26  H    0.000000   0.842854   0.000000   0.000000   0.000000   0.000000
    27  H    0.000000   0.000000   0.841637   0.000000   0.000000   0.000000
    28  C    0.000000   0.000000   0.000000   4.193989   0.000000   0.000000
    29  H    0.000000   0.000000   0.000000   0.000000   0.840053   0.000000
    30  H    0.000000   0.000000   0.000000   0.000000   0.000000   0.830973
    31  H    0.000000   0.000000   0.000000   0.000000   0.000000   0.000000
    32  O    0.000000   0.000000   0.000000   0.000000   0.000000   0.000000
    33  H    0.000000   0.000000   0.000000   0.000000   0.000000   0.000000
    34  H    0.000000   0.000000   0.000000   0.000000   0.000000   0.000000
    35  O    0.000000   0.000000   0.000000   0.000000   0.000000   0.000000
    36  H    0.000000   0.000000   0.000000   0.000000   0.000000   0.000000
    37  H    0.000000   0.000000   0.000000   0.000000   0.000000   0.000000
    38  O    0.000000   0.000000   0.000000   0.000000   0.000000   0.000000
    39  H    0.000000   0.000000   0.000000   0.000000   0.000000   0.000000
    40  H    0.000000   0.000000   0.000000   0.000000   0.000000   0.000000
    41  O    0.000000   0.000000   0.000000   0.000000   0.000000   0.000000
    42  H    0.000000   0.000000   0.000000   0.000000   0.000000   0.000000
    43  H    0.000000   0.000000   0.000000   0.000000   0.000000   0.000000
              31         32         33         34         35         36
     1  C    0.000000   0.000000   0.000000   0.000000   0.000000   0.000000
     2  C    0.000000   0.000000   0.000000   0.000000   0.000000   0.000000
     3  C    0.000000   0.000000   0.000000   0.000000   0.000000   0.000000
     4  C    0.000000   0.000000   0.000000   0.000000   0.000000   0.000000
     5  H    0.000000   0.000000   0.000000   0.000000   0.000000   0.000000
     6  H    0.000000   0.000000   0.000000   0.000000   0.000000   0.000000
     7  C    0.000000   0.000000   0.000000   0.000000   0.000000   0.000000
     8  H    0.000000   0.000000   0.000000   0.000000   0.000000   0.000000
     9  H    0.000000   0.000000   0.000000   0.000000   0.000000   0.000000
    10  C    0.000000   0.000000   0.000000   0.000000   0.000000   0.000000
    11  H    0.000000   0.000000   0.000000   0.000000   0.000000   0.000000
    12  C    0.000000   0.000000   0.000000   0.000000   0.000000   0.000000
    13  H    0.000000   0.000000   0.000000   0.000000   0.000000   0.000000
    14  H    0.000000   0.000000   0.000000   0.000000   0.000000   0.000000
    15  H    0.000000   0.000000   0.000000   0.000000   0.000000   0.000000
    16  N    0.000000   0.000000   0.000000   0.000000   0.000000   0.000000
    17  N    0.000000   0.000000   0.000000   0.000000   0.000000   0.000000
    18  C    0.000000   0.000000   0.000000   0.000000   0.000000   0.000000
    19  C    0.000000   0.000000   0.000000   0.000000   0.000000   0.000000
    20  O    0.000000   0.000000   0.000000   0.000000   0.000000   0.000000
    21  O    0.000000   0.000000   0.000000   0.000000   0.000000   0.000000
    22  O    0.000000   0.000000   0.000000   0.000000   0.000000   0.000000
    23  O    0.000000   0.000000   0.000000   0.000000   0.000000   0.000000
    24  C    0.000000   0.000000   0.000000   0.000000   0.000000   0.000000
    25  H    0.000000   0.000000   0.000000   0.000000   0.000000   0.000000
    26  H    0.000000   0.000000   0.000000   0.000000   0.000000   0.000000
    27  H    0.000000   0.000000   0.000000   0.000000   0.000000   0.000000
    28  C    0.000000   0.000000   0.000000   0.000000   0.000000   0.000000
    29  H    0.000000   0.000000   0.000000   0.000000   0.000000   0.000000
    30  H    0.000000   0.000000   0.000000   0.000000   0.000000   0.000000
    31  H    0.809492   0.000000   0.000000   0.000000   0.000000   0.000000
    32  O    0.000000   6.670570   0.000000   0.000000   0.000000   0.000000
    33  H    0.000000   0.000000   0.667719   0.000000   0.000000   0.000000
    34  H    0.000000   0.000000   0.000000   0.664694   0.000000   0.000000
    35  O    0.000000   0.000000   0.000000   0.000000   6.655295   0.000000
    36  H    0.000000   0.000000   0.000000   0.000000   0.000000   0.669658
    37  H    0.000000   0.000000   0.000000   0.000000   0.000000   0.000000
    38  O    0.000000   0.000000   0.000000   0.000000   0.000000   0.000000
    39  H    0.000000   0.000000   0.000000   0.000000   0.000000   0.000000
    40  H    0.000000   0.000000   0.000000   0.000000   0.000000   0.000000
    41  O    0.000000   0.000000   0.000000   0.000000   0.000000   0.000000
    42  H    0.000000   0.000000   0.000000   0.000000   0.000000   0.000000
    43  H    0.000000   0.000000   0.000000   0.000000   0.000000   0.000000
              37         38         39         40         41         42
     1  C    0.000000   0.000000   0.000000   0.000000   0.000000   0.000000
     2  C    0.000000   0.000000   0.000000   0.000000   0.000000   0.000000
     3  C    0.000000   0.000000   0.000000   0.000000   0.000000   0.000000
     4  C    0.000000   0.000000   0.000000   0.000000   0.000000   0.000000
     5  H    0.000000   0.000000   0.000000   0.000000   0.000000   0.000000
     6  H    0.000000   0.000000   0.000000   0.000000   0.000000   0.000000
     7  C    0.000000   0.000000   0.000000   0.000000   0.000000   0.000000
     8  H    0.000000   0.000000   0.000000   0.000000   0.000000   0.000000
     9  H    0.000000   0.000000   0.000000   0.000000   0.000000   0.000000
    10  C    0.000000   0.000000   0.000000   0.000000   0.000000   0.000000
    11  H    0.000000   0.000000   0.000000   0.000000   0.000000   0.000000
    12  C    0.000000   0.000000   0.000000   0.000000   0.000000   0.000000
    13  H    0.000000   0.000000   0.000000   0.000000   0.000000   0.000000
    14  H    0.000000   0.000000   0.000000   0.000000   0.000000   0.000000
    15  H    0.000000   0.000000   0.000000   0.000000   0.000000   0.000000
    16  N    0.000000   0.000000   0.000000   0.000000   0.000000   0.000000
    17  N    0.000000   0.000000   0.000000   0.000000   0.000000   0.000000
    18  C    0.000000   0.000000   0.000000   0.000000   0.000000   0.000000
    19  C    0.000000   0.000000   0.000000   0.000000   0.000000   0.000000
    20  O    0.000000   0.000000   0.000000   0.000000   0.000000   0.000000
    21  O    0.000000   0.000000   0.000000   0.000000   0.000000   0.000000
    22  O    0.000000   0.000000   0.000000   0.000000   0.000000   0.000000
    23  O    0.000000   0.000000   0.000000   0.000000   0.000000   0.000000
    24  C    0.000000   0.000000   0.000000   0.000000   0.000000   0.000000
    25  H    0.000000   0.000000   0.000000   0.000000   0.000000   0.000000
    26  H    0.000000   0.000000   0.000000   0.000000   0.000000   0.000000
    27  H    0.000000   0.000000   0.000000   0.000000   0.000000   0.000000
    28  C    0.000000   0.000000   0.000000   0.000000   0.000000   0.000000
    29  H    0.000000   0.000000   0.000000   0.000000   0.000000   0.000000
    30  H    0.000000   0.000000   0.000000   0.000000   0.000000   0.000000
    31  H    0.000000   0.000000   0.000000   0.000000   0.000000   0.000000
    32  O    0.000000   0.000000   0.000000   0.000000   0.000000   0.000000
    33  H    0.000000   0.000000   0.000000   0.000000   0.000000   0.000000
    34  H    0.000000   0.000000   0.000000   0.000000   0.000000   0.000000
    35  O    0.000000   0.000000   0.000000   0.000000   0.000000   0.000000
    36  H    0.000000   0.000000   0.000000   0.000000   0.000000   0.000000
    37  H    0.670324   0.000000   0.000000   0.000000   0.000000   0.000000
    38  O    0.000000   6.676846   0.000000   0.000000   0.000000   0.000000
    39  H    0.000000   0.000000   0.666337   0.000000   0.000000   0.000000
    40  H    0.000000   0.000000   0.000000   0.663155   0.000000   0.000000
    41  O    0.000000   0.000000   0.000000   0.000000   6.675804   0.000000
    42  H    0.000000   0.000000   0.000000   0.000000   0.000000   0.666774
    43  H    0.000000   0.000000   0.000000   0.000000   0.000000   0.000000
              43
     1  C    0.000000
     2  C    0.000000
     3  C    0.000000
     4  C    0.000000
     5  H    0.000000
     6  H    0.000000
     7  C    0.000000
     8  H    0.000000
     9  H    0.000000
    10  C    0.000000
    11  H    0.000000
    12  C    0.000000
    13  H    0.000000
    14  H    0.000000
    15  H    0.000000
    16  N    0.000000
    17  N    0.000000
    18  C    0.000000
    19  C    0.000000
    20  O    0.000000
    21  O    0.000000
    22  O    0.000000
    23  O    0.000000
    24  C    0.000000
    25  H    0.000000
    26  H    0.000000
    27  H    0.000000
    28  C    0.000000
    29  H    0.000000
    30  H    0.000000
    31  H    0.000000
    32  O    0.000000
    33  H    0.000000
    34  H    0.000000
    35  O    0.000000
    36  H    0.000000
    37  H    0.000000
    38  O    0.000000
    39  H    0.000000
    40  H    0.000000
    41  O    0.000000
    42  H    0.000000
    43  H    0.664188
 Mulliken charges:
               1
     1  C   -0.274966
     2  C   -0.049235
     3  C   -0.118229
     4  C   -0.150048
     5  H    0.198036
     6  H    0.178491
     7  C   -0.278086
     8  H    0.169685
     9  H    0.172034
    10  C   -0.001667
    11  H    0.179392
    12  C   -0.214306
    13  H    0.185697
    14  H    0.205607
    15  H    0.169935
    16  N   -0.404875
    17  N   -0.049844
    18  C    0.735391
    19  C    0.689609
    20  O   -0.539936
    21  O   -0.571270
    22  O   -0.396607
    23  O   -0.463548
    24  C   -0.175110
    25  H    0.174211
    26  H    0.157146
    27  H    0.158363
    28  C   -0.193989
    29  H    0.159947
    30  H    0.169027
    31  H    0.190508
    32  O   -0.670570
    33  H    0.332281
    34  H    0.335306
    35  O   -0.655295
    36  H    0.330342
    37  H    0.329676
    38  O   -0.676846
    39  H    0.333663
    40  H    0.336845
    41  O   -0.675804
    42  H    0.333226
    43  H    0.335812
 Sum of Mulliken charges =   0.00000
 Mulliken charges with hydrogens summed into heavy atoms:
               1
     1  C   -0.076930
     2  C    0.156373
     3  C    0.051706
     4  C    0.028443
     7  C    0.063633
    10  C    0.177726
    12  C   -0.028609
    16  N   -0.404875
    17  N   -0.049844
    18  C    0.735391
    19  C    0.689609
    20  O   -0.539936
    21  O   -0.571270
    22  O   -0.396607
    23  O   -0.463548
    24  C    0.314609
    28  C    0.325494
    32  O   -0.002984
    35  O    0.004723
    38  O   -0.006338
    41  O   -0.006765
 APT charges:
               1
     1  C   -2.887013
     2  C    0.466207
     3  C   -0.119573
     4  C   -0.189571
     5  H    0.403853
     6  H    0.193189
     7  C   -0.410928
     8  H    0.237496
     9  H    0.195522
    10  C    0.507880
    11  H    0.268598
    12  C   -0.189276
    13  H    0.278890
    14  H    0.247248
    15  H    0.206334
    16  N   -1.578774
    17  N    1.724906
    18  C    2.317014
    19  C    2.087619
    20  O   -1.221163
    21  O   -1.311502
    22  O   -1.067829
    23  O   -1.165238
    24  C   -0.079862
    25  H    0.181809
    26  H    0.195750
    27  H    0.170572
    28  C   -0.127278
    29  H    0.184793
    30  H    0.220516
    31  H    0.219390
    32  O   -0.849337
    33  H    0.422018
    34  H    0.446639
    35  O   -0.816162
    36  H    0.385632
    37  H    0.382578
    38  O   -0.849657
    39  H    0.438603
    40  H    0.435974
    41  O   -0.844240
    42  H    0.432643
    43  H    0.455753
 Sum of APT charges =   0.00003
 APT charges with hydrogens summed into heavy atoms:
               1
     1  C   -2.483160
     2  C    0.713455
     3  C    0.086761
     4  C    0.003618
     7  C    0.022090
    10  C    0.776479
    12  C    0.089614
    16  N   -1.578774
    17  N    1.724906
    18  C    2.317014
    19  C    2.087619
    20  O   -1.221163
    21  O   -1.311502
    22  O   -1.067829
    23  O   -1.165238
    24  C    0.468269
    28  C    0.497422
    32  O    0.019320
    35  O   -0.047952
    38  O    0.024921
    41  O    0.044156
 Charge=              0.0000 electrons
 Dipole moment (field-independent basis, Debye):
    X=             -3.8988    Y=              8.9980    Z=              3.8412  Tot=             10.5319
 N-N= 1.149900969302D+03 E-N=-2.133706180559D+03  KE=-8.095629739231D+01
  Exact polarizability: 215.536 -36.418 260.647 -43.700  79.756 213.214
 Approx polarizability: 114.480  -7.874 122.026 -19.265  15.015 112.356
 D2PCM: C-PCM CHGder 2nd derivatives, FixD1E=F FixD2E=F DoIter=F DoCFld=F I1PDM=0
 Calling FoFJK, ICntrl=    100127 FMM=F ISym2X=0 I1Cent= 0 IOpClX= 0 NMat=1 NMatS=1 NMatT=0.
 Full mass-weighted force constant matrix:
 Low frequencies --- -915.2447  -11.9657   -0.1906   -0.0740   -0.0238    5.4122
 Low frequencies ---    6.9805   16.4460   21.3556
 ******    1 imaginary frequencies (negative Signs) ****** 
 Diagonal vibrational polarizability:
      719.2065490     988.3196545     809.7598192
 Harmonic frequencies (cm**-1), IR intensities (KM/Mole), Raman scattering
 activities (A**4/AMU), depolarization ratios for plane and unpolarized
 incident light, reduced masses (AMU), force constants (mDyne/A),
 and normal coordinates:
                      1                      2                      3
                      A                      A                      A
 Frequencies --   -915.2446                14.9902                21.1006
 Red. masses --      8.8150                 6.2889                 6.3796
 Frc consts  --      4.3506                 0.0008                 0.0017
 IR Inten    --  10620.9829                 0.3104                 2.4162
  Atom  AN      X      Y      Z        X      Y      Z        X      Y      Z
     1   6    -0.16   0.53   0.40     0.00  -0.03   0.03    -0.03  -0.08  -0.01
     2   6     0.02  -0.05  -0.09    -0.05  -0.04   0.04     0.04  -0.04   0.01
     3   6     0.01   0.02  -0.01    -0.05   0.02   0.01     0.03  -0.10   0.12
     4   6     0.03   0.02   0.03     0.00   0.01   0.01    -0.04  -0.12   0.07
     5   1     0.02  -0.27  -0.38     0.03  -0.05   0.04    -0.07  -0.08  -0.05
     6   1    -0.02  -0.03  -0.06     0.02   0.02  -0.01    -0.07  -0.15   0.07
     7   6     0.01   0.00  -0.02    -0.07   0.00   0.02     0.08  -0.05   0.09
     8   1     0.01   0.00   0.02    -0.10   0.00   0.03     0.11  -0.03   0.12
     9   1     0.02   0.04  -0.02    -0.07   0.01   0.02     0.11  -0.02   0.08
    10   6     0.00  -0.22   0.05    -0.03  -0.04   0.04    -0.02  -0.09   0.03
    11   1     0.05   0.22  -0.11    -0.03  -0.06   0.05    -0.04  -0.09  -0.01
    12   6     0.06   0.02   0.00    -0.03  -0.01   0.02    -0.03  -0.13   0.10
    13   1     0.03   0.06  -0.05    -0.03   0.00   0.02    -0.06  -0.16   0.13
    14   1     0.03   0.05  -0.03    -0.05  -0.06   0.05     0.07  -0.01  -0.03
    15   1     0.00  -0.01  -0.03    -0.06   0.05  -0.01     0.04  -0.12   0.18
    16   7    -0.07  -0.07   0.02     0.01   0.00   0.02    -0.01  -0.02  -0.04
    17   7     0.06  -0.19  -0.28     0.01  -0.02   0.02    -0.01  -0.05  -0.04
    18   6     0.11   0.01   0.03     0.01   0.02   0.02    -0.01  -0.03  -0.04
    19   6    -0.05  -0.03  -0.04     0.01  -0.01   0.03    -0.01  -0.04  -0.05
    20   8    -0.01  -0.01   0.02    -0.03   0.04   0.11     0.00  -0.06  -0.10
    21   8    -0.02   0.02   0.00     0.00   0.05   0.03    -0.01  -0.05  -0.06
    22   8     0.01   0.00   0.00     0.05  -0.06  -0.07    -0.01  -0.01   0.00
    23   8    -0.01   0.00  -0.01     0.02  -0.01  -0.01     0.00   0.02  -0.01
    24   6     0.01   0.00   0.00     0.02   0.00  -0.01     0.00   0.05  -0.01
    25   1    -0.03  -0.01   0.01     0.03  -0.01  -0.02     0.01   0.10   0.02
    26   1     0.01  -0.02   0.00     0.03   0.02  -0.02     0.01   0.01   0.02
    27   1     0.00   0.00   0.02     0.01   0.01   0.01    -0.01   0.06  -0.07
    28   6    -0.01   0.00   0.00     0.05  -0.05  -0.09    -0.01   0.01   0.00
    29   1     0.01   0.00   0.00     0.05  -0.16  -0.03    -0.04  -0.05   0.03
    30   1    -0.01   0.01   0.00     0.02   0.05  -0.03    -0.02   0.09   0.04
    31   1     0.01   0.01   0.01     0.09  -0.05  -0.21     0.03   0.02  -0.07
    32   8     0.00   0.00   0.00    -0.03   0.28   0.24     0.01   0.14   0.11
    33   1    -0.01  -0.02   0.01     0.01   0.29   0.19     0.08   0.07   0.07
    34   1    -0.01  -0.02   0.01    -0.08   0.18   0.27    -0.07   0.09   0.07
    35   8     0.00   0.00   0.00     0.01  -0.06  -0.19     0.14   0.08  -0.18
    36   1    -0.01   0.00  -0.01    -0.07  -0.07  -0.24     0.11   0.08  -0.20
    37   1    -0.01   0.00   0.00     0.09  -0.04  -0.17     0.16   0.07  -0.19
    38   8     0.00   0.00   0.00     0.05  -0.21  -0.26     0.00   0.16   0.21
    39   1    -0.01  -0.04   0.01     0.08  -0.10  -0.25    -0.01   0.08   0.21
    40   1     0.02  -0.01   0.06     0.05  -0.22  -0.14    -0.03   0.17   0.09
    41   8     0.00   0.00   0.00     0.00   0.07   0.06    -0.14   0.23  -0.13
    42   1     0.02   0.04  -0.03     0.00   0.06   0.06    -0.19   0.17  -0.16
    43   1     0.02   0.02  -0.04     0.00   0.07   0.04    -0.02   0.14  -0.05
                      4                      5                      6
                      A                      A                      A
 Frequencies --     23.5528                29.3841                31.7398
 Red. masses --      6.7628                 6.0283                 4.6788
 Frc consts  --      0.0022                 0.0031                 0.0028
 IR Inten    --      3.8752                 3.7254                 2.2036
  Atom  AN      X      Y      Z        X      Y      Z        X      Y      Z
     1   6     0.01   0.04   0.06    -0.02   0.01  -0.02    -0.05   0.04  -0.07
     2   6     0.03   0.03   0.03    -0.02   0.02   0.01     0.07   0.03  -0.13
     3   6     0.04   0.00   0.03    -0.02   0.01   0.01     0.04  -0.04   0.02
     4   6     0.02   0.02   0.05    -0.02   0.00  -0.01    -0.06  -0.01   0.02
     5   1     0.01   0.06   0.08    -0.02   0.00  -0.02    -0.12   0.08  -0.10
     6   1     0.01   0.02   0.06    -0.02  -0.01  -0.03    -0.12  -0.03   0.08
     7   6     0.04  -0.01   0.02    -0.03   0.03   0.01     0.13  -0.03  -0.05
     8   1     0.06  -0.01   0.00    -0.03   0.04   0.03     0.19  -0.03  -0.08
     9   1     0.03  -0.03   0.03    -0.03   0.05   0.00     0.18  -0.06  -0.02
    10   6     0.04   0.06   0.03    -0.02   0.00   0.02    -0.03   0.06  -0.14
    11   1     0.05   0.09   0.02    -0.01  -0.02   0.02    -0.07   0.11  -0.20
    12   6     0.05   0.04   0.02    -0.02  -0.01   0.01    -0.05   0.02  -0.03
    13   1     0.05   0.05   0.01    -0.01  -0.02   0.02    -0.09   0.02  -0.02
    14   1     0.04   0.03   0.03    -0.03   0.04   0.01     0.10   0.06  -0.20
    15   1     0.05  -0.02   0.02    -0.02   0.02   0.00     0.07  -0.09   0.09
    16   7    -0.03  -0.02   0.08    -0.02   0.04  -0.03     0.01  -0.04   0.00
    17   7    -0.01   0.01   0.10    -0.01   0.02  -0.03    -0.02  -0.01  -0.02
    18   6    -0.03  -0.02   0.04    -0.02   0.05  -0.03     0.01  -0.03   0.03
    19   6    -0.02   0.01   0.12     0.00  -0.02  -0.03     0.00  -0.02  -0.05
    20   8    -0.04   0.03   0.14     0.07  -0.09  -0.13     0.02  -0.06  -0.12
    21   8    -0.05  -0.04   0.00    -0.02   0.10   0.01     0.02  -0.09   0.01
    22   8    -0.01   0.00   0.09    -0.09   0.04   0.12    -0.03   0.02   0.03
    23   8     0.00   0.03   0.06    -0.02  -0.01  -0.07    -0.02   0.05   0.10
    24   6     0.01   0.06   0.04    -0.02  -0.04  -0.07    -0.03   0.11   0.17
    25   1     0.04   0.16   0.10    -0.03  -0.14  -0.13    -0.05   0.23   0.24
    26   1    -0.01  -0.02   0.08    -0.01   0.06  -0.12     0.01   0.02   0.25
    27   1     0.01   0.08  -0.07    -0.03  -0.05   0.05    -0.05   0.14   0.05
    28   6     0.00   0.00   0.06    -0.10   0.00   0.18    -0.04   0.03   0.07
    29   1     0.01  -0.06   0.09    -0.15  -0.08   0.22    -0.07   0.09   0.04
    30   1    -0.03   0.06   0.08    -0.07   0.07   0.25    -0.02  -0.03   0.05
    31   1     0.02   0.00  -0.01    -0.10   0.00   0.09    -0.06   0.03   0.14
    32   8    -0.09  -0.23  -0.22     0.15  -0.15   0.16     0.08   0.00   0.12
    33   1    -0.19  -0.17  -0.14     0.23  -0.21   0.11     0.15  -0.05   0.07
    34   1     0.03  -0.12  -0.20     0.06  -0.07   0.03     0.00  -0.01   0.07
    35   8     0.13   0.11  -0.24     0.07   0.16  -0.23     0.02   0.04   0.14
    36   1     0.07   0.13  -0.29     0.01   0.19  -0.28     0.14   0.04   0.23
    37   1     0.18   0.09  -0.27     0.09   0.13  -0.28    -0.11   0.01   0.12
    38   8     0.04  -0.15  -0.15     0.00   0.00  -0.05    -0.03  -0.13  -0.17
    39   1     0.10  -0.06  -0.12    -0.04  -0.01  -0.07     0.07  -0.03  -0.11
    40   1     0.04  -0.17  -0.04    -0.01   0.00  -0.05    -0.07  -0.15  -0.07
    41   8    -0.12   0.08  -0.17     0.10  -0.14   0.16    -0.04   0.07   0.00
    42   1    -0.12   0.07  -0.17     0.13  -0.09   0.17    -0.09   0.06  -0.06
    43   1    -0.08   0.02  -0.09     0.02  -0.05   0.06     0.03   0.00   0.06
                      7                      8                      9
                      A                      A                      A
 Frequencies --     37.3905                46.9191                57.1459
 Red. masses --      6.2092                 6.4695                 3.5575
 Frc consts  --      0.0051                 0.0084                 0.0068
 IR Inten    --      4.2476                 3.5003                 2.0819
  Atom  AN      X      Y      Z        X      Y      Z        X      Y      Z
     1   6    -0.04  -0.03   0.03    -0.02   0.03   0.01    -0.05   0.04  -0.03
     2   6    -0.03  -0.01   0.05    -0.03   0.03   0.00     0.08   0.05  -0.08
     3   6    -0.04  -0.03   0.08    -0.03   0.04  -0.01     0.05  -0.04   0.12
     4   6    -0.05  -0.04   0.06    -0.02   0.05   0.00    -0.07  -0.02   0.09
     5   1    -0.05  -0.05   0.00    -0.02   0.04   0.01    -0.12   0.08  -0.07
     6   1    -0.06  -0.05   0.05    -0.01   0.05   0.01    -0.13  -0.04   0.14
     7   6    -0.03   0.00   0.08    -0.04   0.03  -0.01     0.16   0.00   0.03
     8   1    -0.02   0.01   0.11    -0.04   0.02  -0.02     0.22   0.01   0.03
     9   1    -0.02   0.03   0.06    -0.04   0.01   0.00     0.21   0.01   0.05
    10   6    -0.05  -0.04   0.06    -0.02   0.04   0.00    -0.03   0.06  -0.08
    11   1    -0.06  -0.06   0.06    -0.02   0.04   0.01    -0.08   0.10  -0.15
    12   6    -0.05  -0.05   0.08    -0.02   0.05  -0.01    -0.06   0.00   0.05
    13   1    -0.06  -0.06   0.09    -0.02   0.06  -0.01    -0.11  -0.01   0.08
    14   1    -0.03   0.00   0.04    -0.03   0.02   0.01     0.13   0.07  -0.17
    15   1    -0.03  -0.04   0.09    -0.03   0.04  -0.02     0.08  -0.08   0.20
    16   7     0.01   0.03   0.01     0.05   0.02   0.06    -0.02   0.02  -0.01
    17   7     0.00   0.00  -0.01     0.01   0.03   0.03    -0.01   0.03  -0.01
    18   6     0.00   0.07   0.02     0.04   0.00   0.12    -0.02   0.05  -0.02
    19   6     0.01  -0.01  -0.03     0.03   0.01  -0.03    -0.02   0.02   0.02
    20   8     0.01  -0.02  -0.07     0.05  -0.03  -0.12    -0.05   0.07   0.12
    21   8    -0.01   0.05   0.00     0.07   0.10   0.24    -0.03   0.11   0.02
    22   8     0.01   0.01  -0.02     0.02   0.04   0.02     0.01  -0.04  -0.09
    23   8     0.02   0.13   0.06     0.00  -0.16   0.02    -0.01  -0.03  -0.07
    24   6     0.01   0.22   0.10    -0.01  -0.25   0.03    -0.01  -0.02  -0.08
    25   1     0.02   0.26   0.13    -0.03  -0.48  -0.11     0.01  -0.29  -0.24
    26   1     0.06   0.21   0.14     0.00  -0.06  -0.09     0.05   0.25  -0.22
    27   1    -0.04   0.25   0.07     0.00  -0.29   0.27    -0.09  -0.03   0.23
    28   6     0.02   0.00  -0.04     0.03   0.01  -0.02     0.00  -0.05  -0.07
    29   1     0.03  -0.01  -0.04     0.06   0.01  -0.02     0.01   0.00  -0.10
    30   1     0.00   0.00  -0.05     0.02   0.00  -0.03     0.02  -0.11  -0.10
    31   1     0.01   0.00  -0.05     0.01   0.01  -0.02    -0.03  -0.06  -0.01
    32   8     0.01   0.07  -0.01     0.10  -0.01   0.04    -0.02  -0.12   0.08
    33   1     0.03   0.03  -0.02     0.14  -0.04   0.01    -0.07   0.03   0.04
    34   1    -0.02   0.04  -0.01     0.04   0.00   0.00     0.04  -0.09   0.11
    35   8    -0.03  -0.02  -0.02    -0.07   0.00  -0.02     0.07  -0.07   0.01
    36   1    -0.05  -0.03  -0.03    -0.08  -0.01  -0.03     0.19  -0.05   0.10
    37   1    -0.02  -0.01  -0.01    -0.08  -0.01  -0.03     0.01  -0.07   0.02
    38   8     0.06   0.03  -0.04    -0.14  -0.06   0.02    -0.01   0.04  -0.01
    39   1     0.11   0.08  -0.01    -0.18  -0.10   0.00    -0.08   0.01  -0.05
    40   1     0.01   0.02  -0.01    -0.07  -0.05   0.04     0.01   0.04  -0.02
    41   8     0.11  -0.35  -0.29     0.00   0.11  -0.33     0.02  -0.04  -0.01
    42   1     0.26  -0.24  -0.16     0.16   0.01  -0.01     0.08  -0.04   0.08
    43   1    -0.09  -0.27  -0.25    -0.10   0.07  -0.19    -0.06   0.03  -0.06
                     10                     11                     12
                      A                      A                      A
 Frequencies --     61.8528                67.0697                79.2396
 Red. masses --      4.9186                 3.9390                 1.6707
 Frc consts  --      0.0111                 0.0104                 0.0062
 IR Inten    --      3.6265                 5.1644                 1.1894
  Atom  AN      X      Y      Z        X      Y      Z        X      Y      Z
     1   6    -0.04   0.00  -0.03     0.00   0.05   0.01     0.03  -0.03   0.00
     2   6     0.00  -0.02  -0.08     0.09   0.07  -0.01     0.01  -0.02   0.02
     3   6    -0.02  -0.02  -0.02     0.09  -0.04   0.07     0.03  -0.04  -0.05
     4   6    -0.05   0.01   0.01     0.01  -0.02   0.05     0.04  -0.03  -0.04
     5   1    -0.06   0.03  -0.02    -0.05   0.08  -0.02     0.04  -0.02   0.01
     6   1    -0.06   0.02   0.05    -0.04  -0.05   0.07     0.05  -0.04  -0.05
     7   6     0.02  -0.04  -0.06     0.13   0.01   0.04    -0.01  -0.03  -0.02
     8   1     0.03  -0.05  -0.09     0.19   0.02   0.04    -0.01  -0.02  -0.01
     9   1     0.04  -0.07  -0.03     0.14   0.01   0.04    -0.04  -0.02  -0.03
    10   6    -0.04   0.03  -0.09     0.06   0.06   0.00     0.06  -0.02   0.02
    11   1    -0.06   0.05  -0.12     0.05   0.10  -0.03     0.09  -0.02   0.05
    12   6    -0.06   0.03  -0.05     0.06  -0.01   0.05     0.07  -0.03  -0.03
    13   1    -0.08   0.05  -0.05     0.05  -0.03   0.06     0.11  -0.04  -0.04
    14   1     0.01  -0.03  -0.11     0.10   0.11  -0.03    -0.01  -0.01   0.05
    15   1    -0.01  -0.03   0.00     0.11  -0.09   0.10     0.03  -0.04  -0.08
    16   7    -0.01  -0.07   0.03    -0.01   0.02   0.01     0.00  -0.02  -0.01
    17   7    -0.01  -0.04   0.04     0.00   0.03   0.02     0.00  -0.02  -0.01
    18   6    -0.01   0.02   0.03    -0.01   0.00  -0.01     0.00   0.00   0.00
    19   6     0.00  -0.09   0.04     0.00   0.02   0.02    -0.01   0.00   0.00
    20   8     0.03  -0.12  -0.01     0.04  -0.03  -0.05    -0.02   0.01   0.00
    21   8    -0.05   0.14   0.08    -0.01  -0.03  -0.04     0.00   0.01   0.01
    22   8    -0.03  -0.05   0.11    -0.04   0.05   0.10     0.00   0.01   0.00
    23   8     0.05  -0.05  -0.04     0.00   0.00  -0.01    -0.01   0.00   0.01
    24   6     0.05   0.02  -0.06     0.00  -0.03  -0.05    -0.02   0.11   0.09
    25   1     0.11  -0.27  -0.24     0.01  -0.01  -0.04     0.00  -0.30  -0.16
    26   1     0.13   0.34  -0.22    -0.03  -0.06  -0.05     0.16   0.55  -0.09
    27   1    -0.07   0.03   0.26     0.03  -0.04  -0.07    -0.21   0.12   0.56
    28   6    -0.04  -0.02   0.12    -0.02  -0.01   0.05    -0.01   0.02   0.01
    29   1    -0.07  -0.07   0.15     0.00  -0.17   0.14    -0.03  -0.01   0.03
    30   1    -0.05   0.04   0.16    -0.05   0.12   0.13    -0.01   0.06   0.04
    31   1     0.01  -0.01   0.07    -0.01  -0.02  -0.13     0.01   0.02  -0.02
    32   8    -0.10   0.22  -0.18     0.00   0.09  -0.07    -0.02  -0.02   0.01
    33   1    -0.09   0.01  -0.05     0.02  -0.02  -0.02    -0.02   0.00   0.00
    34   1    -0.12   0.10  -0.11    -0.03   0.08  -0.09    -0.02   0.01  -0.01
[...]
 577,0.00011594,0.00005330,-0.00002757,-0.00003977,-0.00010102,0.000014
 03,0.00002122,0.00000339,0.00001617,-0.00000150,-0.00000107,-0.0000004
 7,-0.00000061,0.00000255,0.00000175,-0.00000133,0.00000023,-0.00000168
 ,-0.00000002,0.00000494,-0.00000168,0.00002131,-0.00001189,0.00000236,
 -0.00001417,0.00000549,0.00000070,-0.00001022,0.00000236,-0.00000544,0
 .00000328,-0.00000089,0.00000248,-0.00000050,0.00000093,0.00000181,-0.
 00000063,0.08984525,-0.03552439,-0.12895760,-0.10084890,0.03874093,0.1
 4555636,-0.00003864,0.00002723,0.00005153,0.00001121,-0.00001275,-0.00
 000705,-0.00000313,-0.00002376,-0.00001932,-0.00006743,0.00010882,0.00
 000140,-0.00022641,0.00018991,0.00010296,0.00008618,-0.00021869,-0.000
 06147,0.00000324,0.00000501,0.00002718,-0.00000534,0.00000108,-0.00000
 672,0.00000704,-0.00002102,-0.00000017,0.00008932,0.00003465,-0.000018
 27,-0.00004091,-0.00002296,0.00004215,-0.00001514,0.00003105,0.0000246
 9,-0.00000250,0.00000904,0.00000793,-0.00001393,-0.00001540,-0.0000073
 6,-0.00000708,-0.00000007,-0.00000217,-0.00050266,0.00037030,-0.000411
 50,-0.00003683,-0.00054812,-0.00027605,0.00163080,-0.00187383,0.002422
 74,-0.00060314,0.00000296,0.00008175,0.00051572,0.00004641,0.00001571,
 0.00039416,0.00087681,-0.00107535,0.00020818,-0.00000335,0.00004549,-0
 .00258952,-0.00017184,0.00019887,-0.00042990,0.00025281,-0.00039415,-0
 .00069323,-0.00006876,-0.00016422,0.00002437,0.00001723,0.00012470,0.0
 0000639,-0.00009410,0.00000099,-0.00001075,-0.00006987,0.00000776,0.00
 000144,-0.00000265,-0.00001002,-0.00001713,-0.00000179,0.00000621,0.00
 002175,0.00001378,0.00000617,-0.00000504,-0.00001010,-0.00003627,0.000
 01948,0.00000626,0.00003299,-0.00001566,-0.00000152,0.00001366,0.00000
 748,0.00000225,-0.00000452,0.00000087,-0.00000335,0.00000237,-0.000002
 86,-0.00000378,0.00000082,-0.01489410,0.01521906,0.01647176,-0.0088504
 2,0.03031882,0.01196495,0.02609703,-0.00021642,0.00092767,0.00056161,-
 0.00007635,-0.00035604,-0.00012006,0.00017340,-0.00015047,-0.00006505,
 0.00015531,0.00017784,0.00010243,0.00039585,-0.00030724,-0.00037255,-0
 .00023362,-0.00059542,-0.00034962,0.00000609,0.00027074,-0.00020335,0.
 00000414,-0.00008687,0.00004553,-0.00000721,-0.00001128,0.00010663,-0.
 00012962,-0.00044040,0.00028317,0.00021845,0.00006533,-0.00021046,-0.0
 0009035,0.00007595,0.00028741,-0.00008113,-0.00001678,-0.00020708,0.00
 015049,0.00003926,0.00008358,-0.00015085,-0.00001055,-0.00000742,-0.00
 067718,-0.00071807,0.00132741,0.00032780,0.00014430,-0.00095590,-0.000
 16501,-0.00147915,0.00236496,0.00110549,0.00003267,-0.00015998,-0.0004
 9103,-0.00020071,0.00006408,0.00073248,0.00077708,-0.00087330,-0.00081
 624,0.00000733,-0.00026093,0.00102055,-0.00015771,-0.00130521,-0.00057
 978,0.00016411,-0.00062709,-0.00000774,0.00012732,-0.00006972,0.000166
 32,0.00003269,0.00008821,0.00004127,-0.00009189,0.00002225,0.00014903,
 0.00025330,-0.00001747,-0.00000976,0.00002096,0.00004765,0.00005338,0.
 00000951,-0.00002677,-0.00005577,-0.00007579,-0.00001788,-0.00007443,-
 0.00001996,0.00003212,0.00004577,0.00000645,-0.00004164,0.00005819,0.0
 0003661,-0.00000539,-0.00003989,0.00004588,-0.00000616,0.00000124,0.00
 000023,-0.00000975,-0.00000656,-0.00000225,0.00000737,0.04091793,-0.18
 571470,-0.04098643,0.00259504,-0.02105550,-0.00167701,-0.04433532,0.20
 830984,0.00077948,-0.00282630,-0.00161681,-0.00001202,0.00053150,0.000
 24069,-0.00012077,-0.00006725,0.00002254,-0.00013938,-0.00005838,-0.00
 012951,-0.00012456,0.00005653,0.00033308,-0.00000533,-0.00006760,0.000
 08872,0.00000294,-0.00014553,0.00015142,-0.00002012,0.00005928,-0.0000
 3267,0.00000739,-0.00001270,-0.00006778,0.00023272,0.00106868,-0.00022
 973,-0.00019888,-0.00010408,0.00019607,-0.00023079,0.00010541,-0.00001
 872,0.00002072,0.00004156,0.00010242,-0.00013479,-0.00004265,-0.000081
 04,0.00007703,0.00003163,0.00001020,0.00210125,0.00141043,-0.00229113,
 -0.00227638,0.00072242,0.00167445,-0.00084999,0.00185279,-0.00317102,-
 0.00089584,0.00000508,0.00017524,0.00068964,0.00026331,0.00004671,-0.0
 0063776,-0.00084898,0.00115224,0.00052537,0.00001569,0.00012559,0.0015
 6857,0.00063422,-0.00112308,0.00052052,-0.00035018,0.00080035,0.000140
 74,-0.00005026,0.00006877,-0.00011169,-0.00004992,-0.00012882,-0.00012
 294,0.00010949,-0.00002546,-0.00008496,-0.00015936,0.00000685,0.000003
 70,-0.00001300,-0.00003302,-0.00003339,-0.00000481,0.00001831,0.000040
 82,0.00004605,0.00001217,0.00003491,0.00002054,-0.00002205,-0.00002843
 ,-0.00000925,0.00003080,-0.00002891,-0.00002799,0.00000349,0.00003013,
 -0.00003246,0.00000342,-0.00000058,-0.00000045,0.00000822,0.00000731,0
 .00000146,-0.00000347,0.01391390,-0.00342568,-0.02245764,0.01448796,-0
 .04182908,-0.01603382,-0.02918763,0.04311615,0.04222657,-0.00047894,0.
 00163794,0.00106123,0.00001331,-0.00037119,-0.00018517,0.00008859,0.00
 003303,0.00000419,0.00010067,0.00003774,0.00008182,0.00006508,-0.00001
 207,-0.00019472,-0.00000876,0.00000973,-0.00009527,-0.00000423,0.00012
 050,-0.00009735,0.00000602,-0.00004376,0.00002940,-0.00000431,-0.00003
 401,0.00008130,-0.00009152,-0.00064484,0.00017399,0.00011830,0.0000591
 9,-0.00011500,0.00012013,-0.00002630,0.00005942,-0.00002337,-0.0000237
 9,-0.00007489,0.00009075,0.00001718,0.00005454,-0.00001657,-0.00006718
 ,-0.00006061,-0.00198882,-0.00082378,0.00165557,0.00065357,-0.00029059
 ,-0.00191024,0.00212243,0.00189927,-0.00285554,0.00032203,0.00018072,0
 .00007677,-0.00023942,-0.00018973,0.00002355,-0.00836824,-0.00518731,0
 .00223351,-0.00021214,-0.00004786,-0.00005234,-0.00023127,-0.00077074,
 0.00087869,-0.00008967,-0.00039348,0.00040562,-0.00005634,0.00005856,-
 0.00012870,-0.00004050,0.00024846,-0.00002843,-0.00002372,0.00003252,-
 0.00031962,0.00004787,0.00004773,-0.00001431,-0.00000709,0.00000731,0.
 00001523,0.00001494,0.00000306,-0.00000775,-0.00001143,-0.00002067,-0.
 00000158,-0.00001929,-0.00001059,0.00001206,0.00001363,0.00000512,-0.0
 0001689,0.00001797,0.00001613,-0.00000207,-0.00002121,0.00001946,-0.00
 000614,0.00000074,-0.00000097,-0.00000329,-0.00000243,-0.00000034,0.00
 000243,-0.00004225,-0.00008588,0.00004009,0.00004762,0.00010225,-0.000
 01553,0.00005119,0.00007684,-0.00006217,0.17096909,-0.00028722,0.00092
 224,0.00062743,0.00001108,-0.00021299,-0.00007727,-0.00000718,0.000011
 93,-0.00002086,0.00002320,0.00002356,0.00005445,0.00003827,0.00000023,
 -0.00011536,-0.00000033,0.00000745,-0.00005321,-0.00001744,0.00004184,
 -0.00001572,0.00002895,-0.00002306,-0.00000122,0.00003878,0.00000660,0
 .00000595,-0.00006251,-0.00036681,0.00011103,0.00006746,0.00003451,-0.
 00006538,0.00004677,-0.00002723,0.00002202,-0.00000777,-0.00001451,-0.
 00004065,0.00005059,0.00001262,0.00002830,-0.00003879,0.00003303,0.000
 03828,-0.00118836,-0.00054071,0.00082219,0.00037284,-0.00028673,-0.001
 08823,0.00150856,0.00117399,-0.00101198,0.00018456,0.00016148,0.000028
 73,-0.00014050,-0.00013079,0.00002266,-0.00485627,0.00012092,0.0021749
 4,-0.00012091,-0.00002529,-0.00002299,-0.00038465,-0.00032640,0.000069
 79,0.00002351,-0.00079799,0.00085421,-0.00014918,0.00007484,-0.0001414
 1,-0.00004824,0.00053352,-0.00012066,0.00014995,0.00023111,-0.00052672
 ,0.00003201,0.00001502,-0.00000261,-0.00000404,0.00000508,0.00000836,0
 .00000957,0.00000143,-0.00000645,-0.00000849,-0.00001153,-0.00000402,-
 0.00001029,-0.00001013,0.00001079,0.00000753,0.00000449,-0.00001221,0.
 00000966,0.00001139,-0.00000285,-0.00002016,0.00000918,0.00000243,0.00
 000202,0.00000009,-0.00000598,0.00000272,0.00000016,0.00000144,-0.0000
 1109,-0.00006729,0.00002406,0.00002158,0.00007201,-0.00000257,0.000028
 63,0.00005315,-0.00004446,0.00464418,0.18154316,0.00023108,-0.00081307
 ,-0.00052822,-0.00002130,0.00016983,0.00008204,-0.00010270,-0.00003754
 ,0.00001222,-0.00005448,-0.00001114,-0.00005472,-0.00003186,0.00000623
 ,0.00009433,0.00001524,0.00000137,0.00005601,-0.00000402,-0.00004397,0
 .00001576,-0.00000458,0.00002090,-0.00000481,-0.00001067,0.00002059,-0
 .00000774,0.00006069,0.00032350,-0.00008582,-0.00005940,-0.00003105,0.
 00005477,-0.00006711,0.00002605,-0.00003062,0.00001442,0.00000679,0.00
 003495,-0.00003915,-0.00001130,-0.00002139,0.00000914,0.00005347,0.000
 09268,0.00092100,0.00024569,-0.00058520,-0.00039001,0.00011657,0.00086
 045,-0.00219861,-0.00066692,0.00084915,-0.00012772,-0.00007637,0.00000
 964,0.00010433,0.00009526,-0.00002499,0.00218198,0.00197132,0.00118972
 ,0.00007353,0.00002517,0.00001838,0.00048450,0.00015488,-0.00012560,-0
 .00002721,0.00093131,-0.00087395,0.00014520,-0.00002566,0.00019055,0.0
 0003061,-0.00039911,0.00008280,-0.00028713,-0.00044897,0.00071734,-0.0
 0001600,-0.00001484,-0.00000958,0.00000284,-0.00000385,-0.00000376,-0.
 00000676,-0.00000211,0.00000377,0.00000388,0.00000739,0.00000216,0.000
 00776,0.00000632,-0.00000937,-0.00000427,-0.00000252,0.00000943,-0.000
 00803,-0.00000816,0.00000266,0.00000984,-0.00000381,-0.00000248,0.0000
 0135,-0.00000142,0.00000405,-0.00000126,-0.00000183,0.00000016,0.00001
 255,0.00003836,-0.00003984,-0.00003560,-0.00005953,0.00001407,-0.00001
 811,-0.00003589,0.00004833,-0.04666541,0.12056067,0.10032893,0.0004878
 4,-0.00154726,-0.00103426,0.00000545,0.00035863,0.00018816,-0.00004807
 ,-0.00005025,-0.00007554,-0.00011716,-0.00002975,-0.00005278,-0.000064
 02,0.00000304,0.00019194,0.00002600,-0.00001754,0.00009544,0.00005605,
 -0.00016482,0.00007016,-0.00000018,0.00006035,-0.00003257,0.00002042,0
 .00005313,-0.00009043,0.00007232,0.00062072,-0.00019673,-0.00012196,-0
 .00005075,0.00011920,-0.00007019,-0.00003357,-0.00009730,0.00003904,0.
 00004079,0.00008216,-0.00009890,-0.00001468,-0.00006166,-0.00032931,0.
 00045316,0.00066665,0.00192789,0.00073469,-0.00146958,-0.00071137,0.00
 015946,0.00177513,-0.00434726,-0.00330063,0.00424218,-0.00032694,-0.00
 014994,-0.00003755,0.00023175,0.00017655,-0.00003247,0.00018622,0.0017
 9233,-0.00209444,0.00019794,0.00004462,0.00004934,-0.00013737,0.001149
 33,-0.00137806,0.00017320,-0.00007663,0.00007104,0.00000522,-0.0000406
 8,0.00007656,0.00002709,-0.00004420,-0.00003708,0.00014726,0.00010552,
 -0.00000171,-0.00004651,-0.00004414,0.00000592,0.00000623,-0.00000688,
 -0.00001353,-0.00001390,-0.00000312,0.00000814,0.00000983,0.00002026,0
 .00000196,0.00002037,0.00001028,-0.00001337,-0.00001360,-0.00000467,0.
 00001703,-0.00001820,-0.00001548,0.00000280,0.00002296,-0.00002069,0.0
 0000495,-0.00000038,0.00000037,0.00000464,0.00000331,0.00000088,-0.000
 00243,0.00004718,0.00008537,-0.00004971,-0.00004776,-0.00009944,0.0000
 2375,-0.00005207,-0.00007678,0.00006276,-0.11693282,0.06855169,0.08042
 487,0.11889383,0.00046337,-0.00155175,-0.00101306,-0.00002938,0.000349
 43,0.00013760,-0.00005237,-0.00003772,0.00004498,-0.00004942,-0.000050
 72,-0.00009958,-0.00006000,0.00001141,0.00017947,-0.00000246,-0.000001
 76,0.00008428,0.00000715,-0.00008591,0.00005561,-0.00003074,0.00003391
 ,-0.00000821,-0.00004490,0.00000782,-0.00002148,0.00010428,0.00061061,
 -0.00017277,-0.00010873,-0.00005746,0.00010408,-0.00010172,0.00005153,
 -0.00004549,0.00001349,0.00001626,0.00006471,-0.00007720,-0.00002097,-
 0.00004222,0.00046416,-0.00013836,-0.00038272,0.00191673,0.00069307,-0
 .00138766,-0.00066869,0.00031246,0.00177111,-0.00394917,-0.00234161,0.
 00275945,-0.00026197,-0.00016078,-0.00004267,0.00020747,0.00017306,-0.
 00003038,-0.00140274,-0.00155818,-0.00198347,0.00017020,0.00003175,0.0
 0003881,0.00036347,0.00077312,-0.00071068,-0.00016939,0.00025654,-0.00
 034836,0.00013136,-0.00006221,0.00015819,0.00007086,-0.00033145,0.0000
 2756,0.00000069,-0.00032715,0.00069644,-0.00004440,-0.00002897,0.00000
 268,0.00000546,-0.00000656,-0.00001193,-0.00001269,-0.00000218,0.00000
 811,0.00001025,0.00001729,0.00000382,0.00001707,0.00001241,-0.00001391
 ,-0.00001166,-0.00000555,0.00001635,-0.00001533,-0.00001529,0.00000331
 ,0.00002307,-0.00001469,-0.00000018,-0.00000119,-0.00000045,0.00000643
 ,0.,0.00000017,-0.00000218,0.00004359,0.00008840,-0.00004995,-0.000049
 15,-0.00010190,0.00001870,-0.00004909,-0.00006842,0.00006376,0.0326864
 8,-0.05174197,-0.04333958,-0.05970850,0.08459171,-0.00010974,0.0002948
 6,0.00022370,-0.00001144,-0.00006646,-0.00003466,0.00000815,0.00003218
 ,0.00004070,0.00003562,-0.00000651,0.00000403,0.00001543,0.00000846,-0
 .00004655,-0.00002430,0.00000326,-0.00003373,-0.00001923,0.00003475,0.
 00000815,0.00000727,-0.00002525,0.00000136,0.00003149,-0.00001530,0.00
 000986,-0.00001497,-0.00012907,0.00005548,0.00003286,0.00000803,-0.000
 03103,-0.00001576,0.00003523,0.00004216,-0.00002265,-0.00001850,-0.000
 02479,0.00002762,0.00000280,0.00001863,0.00067677,-0.00041948,-0.00055
 323,-0.00040034,-0.00008887,0.00013077,0.00017209,-0.00002087,-0.00030
 751,0.00178049,0.00083628,-0.00011530,0.00009936,0.00005845,-0.0000158
 2,-0.00006564,-0.00006047,0.00001711,-0.00321281,-0.00236506,-0.001006
 60,-0.00005178,-0.00001870,-0.00001401,-0.00035019,-0.00010421,-0.0001
 3618,0.00025348,-0.00020601,0.00026880,-0.00008460,0.00001355,-0.00012
 047,-0.00004494,0.00016407,0.00002265,0.00000524,0.00032660,-0.0005369
 3,0.00001204,0.00000930,0.00000647,-0.00000200,0.00000288,0.00000295,0
 .00000435,0.00000163,-0.00000275,-0.00000287,-0.00000482,-0.00000151,-
 0.00000554,-0.00000449,0.00000550,0.00000323,0.00000178,-0.00000587,0.
 00000522,0.00000548,-0.00000135,-0.00000888,0.00000272,0.00000117,-0.0
 0000012,0.00000103,-0.00000292,0.00000149,0.00000112,0.00000034,-0.000
 01313,-0.00002656,0.00002174,0.00002376,0.00003515,-0.00000427,0.00001
 228,0.00002464,-0.00002711,0.05581956,-0.05375455,-0.05557542,-0.07528
 434,0.07360652,0.07503504,0.00051047,-0.00176826,-0.00114513,-0.000018
 86,0.00039384,0.00017659,-0.00004554,-0.00002307,-0.00000052,-0.000085
 85,-0.00004409,-0.00008555,-0.00006978,0.00001466,0.00020490,0.0000060
 6,-0.00001245,0.00008508,0.00002087,-0.00011378,0.00008032,-0.00001747
 ,0.00004219,-0.00002127,-0.00000754,0.00001511,-0.00005569,0.00010418,
 0.00068882,-0.00019276,-0.00012362,-0.00006270,0.00012038,-0.00011529,
 0.00002994,-0.00005771,0.00002101,0.00002592,0.00007557,-0.00009281,-0
 .00001967,-0.00005290,0.00004887,0.00002114,-0.00000166,0.00228032,0.0
 0112585,-0.00157677,-0.00077557,0.00044780,0.00207674,-0.00364880,-0.0
 0355422,0.00364742,-0.00030290,-0.00022499,-0.00006583,0.00021963,0.00
 018354,-0.00002677,-0.00277846,0.00120207,-0.00167692,0.00020675,0.000
 04361,0.00004917,0.00001698,0.00104193,-0.00124927,0.00012815,0.000016
 42,-0.00002412,0.00002622,-0.00005384,0.00008269,0.00007638,-0.0001945
 5,0.00003004,0.00004583,0.00003329,0.00020198,-0.00005066,-0.00004037,
 0.00001139,0.00000707,-0.00000766,-0.00001465,-0.00001455,-0.00000300,
 0.00000833,0.00001128,0.00002011,0.00000267,0.00001937,0.00001188,-0.0
 0001226,-0.00001375,-0.00000558,0.00001650,-0.00001723,-0.00001609,0.0
 0000218,0.00002468,-0.00001882,0.00000389,-0.00000151,0.00000023,0.000
 00507,0.00000159,0.00000060,-0.00000274,0.00004701,0.00009040,-0.00004
 352,-0.00004729,-0.00010305,0.00001841,-0.00005247,-0.00007380,0.00006
 036,-0.04595233,-0.06848897,-0.03455388,0.00089256,0.03020101,0.020717
 90,0.04951846,0.00009655,-0.00032007,-0.00021793,-0.00000542,0.0000707
 2,0.00002373,0.00000166,-0.00000102,0.00001480,-0.00000504,-0.00000857
 ,-0.00001962,-0.00001329,-0.00000036,0.00004006,0.00000033,-0.00000369
 ,0.00001509,0.00000093,-0.00000852,0.00000488,-0.00001158,0.00000716,0
 .00000132,-0.00001520,-0.00000653,0.00000317,0.00002263,0.00012555,-0.
 00003588,-0.00002213,-0.00001203,0.00002161,-0.00001764,0.00001281,-0.
 00000037,0.00000059,0.00000446,0.00001244,-0.00001672,-0.00000446,-0.0
 0000876,0.00001674,-0.00002442,-0.00002477,0.00045813,0.00024701,-0.00
 019130,-0.00015854,0.00014560,0.00037513,-0.00118496,-0.00077535,0.000
 66332,-0.00005493,-0.00007023,0.00000050,0.00004019,0.00004189,-0.0000
 0917,0.00340416,-0.00020454,-0.00169776,0.00003928,0.00000741,0.000005
 85,0.00013751,0.00005555,0.00004267,-0.00015645,0.00009985,-0.00021065
 ,0.00007091,-0.00004407,0.00004025,0.00001830,-0.00040568,0.00022061,0
 .00001258,0.00010335,0.00014888,-0.00001057,-0.00000263,0.00000009,0.0
 0000123,-0.00000171,-0.00000267,-0.00000339,-0.00000030,0.00000249,0.0
 0000325,0.00000381,0.00000194,0.00000310,0.00000358,-0.00000381,-0.000
 00243,-0.00000152,0.00000406,-0.00000281,-0.00000371,0.00000116,0.0000
 0782,-0.00000329,-0.00000127,-0.00000095,0.00000017,0.00000243,-0.0000
 0161,0.00000011,-0.00000066,0.00000204,0.00002364,-0.00000647,-0.00000
 447,-0.00002449,-0.00000172,-0.00001004,-0.00001723,0.00001399,-0.0328
 9867,-0.13052205,-0.07874401,-0.00891924,-0.02931834,-0.01817509,0.039
 17760,0.16083216,-0.00034329,0.00119182,0.00076453,0.00002040,-0.00025
 917,-0.00011713,0.00005445,0.00002773,-0.00000104,0.00005923,0.0000293
 5,0.00006165,0.00004557,-0.00001047,-0.00013690,-0.00000630,0.00000298
 ,-0.00006438,-0.00000836,0.00006983,-0.00004802,0.00000851,-0.00002807
 ,0.00001371,0.00000897,-0.00002059,0.00002487,-0.00007723,-0.00046421,
 0.00013284,0.00008419,0.00004265,-0.00008046,0.00008141,-0.00002199,0.
 00004089,-0.00001600,-0.00001500,-0.00005028,0.00005886,0.00001431,0.0
 0003222,-0.00002167,-0.00003301,-0.00003876,-0.00145718,-0.00052529,0.
 00095308,0.00053325,-0.00024332,-0.00133379,0.00316477,0.00152407,-0.0
 0179870,0.00019421,0.00012011,0.00002359,-0.00015168,-0.00012827,0.000
 02544,0.00085169,-0.00065916,-0.00025253,-0.00012606,-0.00002722,-0.00
 003168,-0.00042275,-0.00036717,0.00039291,0.00027354,-0.00035275,0.000
 39285,-0.00014964,0.00006110,-0.00014093,-0.00003224,0.00058331,-0.000
 27694,0.00005262,0.00017335,-0.00086258,0.00003103,0.00002524,0.000002
 60,-0.00000440,0.00000487,0.00000794,0.00000974,0.00000223,-0.00000561
 ,-0.00000666,-0.00001331,-0.00000226,-0.00001324,-0.00000877,0.0000112
 3,0.00000840,0.00000388,-0.00001248,0.00001221,0.00001129,-0.00000292,
 -0.00001387,0.00001017,-0.00000086,-0.00000060,0.00000106,-0.00000402,
 -0.00000118,0.00000042,0.00000150,-0.00003060,-0.00006208,0.00004593,0
 .00004015,0.00007656,-0.00001946,0.00003267,0.00004850,-0.00005274,-0.
 00979973,-0.06833110,-0.04679154,-0.00612737,-0.03014583,-0.01731924,0
 .01318426,0.09769255,0.06651879\\0.00000967,-0.00001003,0.00001515,-0.
 00000022,0.00000052,-0.00000294,0.00000013,0.00000202,-0.00000624,0.00
 000223,0.00000295,-0.00000279,0.00000248,0.00000277,0.00000228,0.00000
 278,0.00000435,-0.00000263,-0.00000167,-0.00000069,-0.00000511,-0.0000
 0242,-0.00000140,-0.00000688,-0.00000267,-0.00000258,-0.00000448,0.000
 00182,0.00000294,-0.00000226,0.00000243,0.00000400,-0.00000199,0.00000
 180,0.00000452,-0.00000518,0.00000322,0.00000608,-0.00000686,-0.000001
 73,-0.00000173,-0.00000025,-0.00000016,0.00000207,-0.00000837,0.000016
 55,-0.00002741,0.00001136,-0.00002695,0.00005997,-0.00003424,-0.000000
 47,-0.00000139,-0.00000133,0.00000040,-0.00002428,0.00001530,0.0000005
 0,-0.00000160,0.00000759,-0.00000268,-0.00000226,-0.00000320,-0.000001
 23,-0.00000359,0.00000398,0.00000054,0.00000210,-0.00000007,0.00000127
 ,0.00000202,-0.00000284,0.00000297,0.00000438,-0.00000129,0.00000016,0
 .00000090,-0.00000172,0.00000118,0.00000304,-0.00000505,-0.00000302,-0
 .00000472,0.00000707,-0.00000377,-0.00000676,0.00000701,-0.00000094,-0
 .00000339,0.00000818,-0.00000152,-0.00000524,0.00000396,0.00000207,-0.
 00000094,0.00001219,0.00000237,0.00000034,0.00000996,0.00000104,-0.000
 00192,0.00001258,-0.00000314,-0.00000253,0.00000016,-0.00000116,-0.000
 00247,0.00000173,-0.00000278,-0.00000389,-0.00000186,0.00000311,0.0000
 0402,0.00000555,0.00000290,0.00000178,0.00000389,0.00000362,0.00000332
 ,0.00000346,-0.00000320,-0.00000155,-0.00000867,-0.00000227,-0.0000009
 7,-0.00000843,-0.00000326,-0.00000275,-0.00000670\\\@


 WE HAVE LEFT UNDONE THOSE THINGS WHICH WE OUGHT TO HAVE DONE,
 AND WE HAVE DONE THOSE THINGS WHICH WE OUGHT NOT TO HAVE DONE.
                   BOOK OF COMMON PRAYER                      
 Job cpu time:       0 days  0 hours  1 minutes 18.0 seconds.
 File lengths (MBytes):  RWF=    285 Int=      0 D2E=      0 Chk=     42 Scr=      1
 Normal termination of Gaussian 09 at Wed Sep 16 19:14:50 2020.
