 Entering Gaussian System, Link 0=g09
 Input=cyclohexene_pm6_cpcmtoluene_2.com
 Output=cyclohexene_pm6_cpcmtoluene_2.log
 Initial command:
 /apps/applications/gaussian/G09.D01/2/default/g09/l1.exe "/local/645215.1.40core-192G.q/Gau-151136.inp" -scrdir="/local/645215.1.40core-192G.q/"
 Entering Link 1 = /apps/applications/gaussian/G09.D01/2/default/g09/l1.exe PID=    151137.
  
 Copyright (c) 1988,1990,1992,1993,1995,1998,2003,2009,2013,
            Gaussian, Inc.  All Rights Reserved.
  
 This is part of the Gaussian(R) 09 program.  It is based on
 the Gaussian(R) 03 system (copyright 2003, Gaussian, Inc.),
 the Gaussian(R) 98 system (copyright 1998, Gaussian, Inc.),
 the Gaussian(R) 94 system (copyright 1995, Gaussian, Inc.),
 the Gaussian 92(TM) system (copyright 1992, Gaussian, Inc.),
 the Gaussian 90(TM) system (copyright 1990, Gaussian, Inc.),
 the Gaussian 88(TM) system (copyright 1988, Gaussian, Inc.),
 the Gaussian 86(TM) system (copyright 1986, Carnegie Mellon
 University), and the Gaussian 82(TM) system (copyright 1983,
 Carnegie Mellon University). Gaussian is a federally registered
 trademark of Gaussian, Inc.
  
 This software contains proprietary and confidential information,
 including trade secrets, belonging to Gaussian, Inc.
  
 This software is provided under written license and may be
 used, copied, transmitted, or stored only in accord with that
 written license.
  
 The following legend is applicable only to US Government
 contracts under FAR:
  
                    RESTRICTED RIGHTS LEGEND
  
 Use, reproduction and disclosure by the US Government is
 subject to restrictions as set forth in subparagraphs (a)
 and (c) of the Commercial Computer Software - Restricted
 Rights clause in FAR 52.227-19.
  
 Gaussian, Inc.
 340 Quinnipiac St., Bldg. 40, Wallingford CT 06492
  
  
 ---------------------------------------------------------------
 Warning -- This program may not be used in any manner that
 competes with the business of Gaussian, Inc. or will provide
 assistance to any competitor of Gaussian, Inc.  The licensee
 of this program is prohibited from giving any competitor of
 Gaussian, Inc. access to this program.  By using this program,
 the user acknowledges that Gaussian, Inc. is engaged in the
 business of creating and licensing software in the field of
 computational chemistry and represents and warrants to the
 licensee that it is not a competitor of Gaussian, Inc. and that
 it will not use this program in any manner prohibited above.
 ---------------------------------------------------------------
  

 Cite this work as:
 Gaussian 09, Revision D.01,
 M. J. Frisch, G. W. Trucks, H. B. Schlegel, G. E. Scuseria, 
 M. A. Robb, J. R. Cheeseman, G. Scalmani, V. Barone, B. Mennucci, 
 G. A. Petersson, H. Nakatsuji, M. Caricato, X. Li, H. P. Hratchian, 
 A. F. Izmaylov, J. Bloino, G. Zheng, J. L. Sonnenberg, M. Hada, 
 M. Ehara, K. Toyota, R. Fukuda, J. Hasegawa, M. Ishida, T. Nakajima, 
 Y. Honda, O. Kitao, H. Nakai, T. Vreven, J. A. Montgomery, Jr., 
 J. E. Peralta, F. Ogliaro, M. Bearpark, J. J. Heyd, E. Brothers, 
 K. N. Kudin, V. N. Staroverov, T. Keith, R. Kobayashi, J. Normand, 
 K. Raghavachari, A. Rendell, J. C. Burant, S. S. Iyengar, J. Tomasi, 
 M. Cossi, N. Rega, J. M. Millam, M. Klene, J. E. Knox, J. B. Cross, 
 V. Bakken, C. Adamo, J. Jaramillo, R. Gomperts, R. E. Stratmann, 
 O. Yazyev, A. J. Austin, R. Cammi, C. Pomelli, J. W. Ochterski, 
 R. L. Martin, K. Morokuma, V. G. Zakrzewski, G. A. Voth, 
 P. Salvador, J. J. Dannenberg, S. Dapprich, A. D. Daniels, 
 O. Farkas, J. B. Foresman, J. V. Ortiz, J. Cioslowski, 
 and D. J. Fox, Gaussian, Inc., Wallingford CT, 2013.
 
 ******************************************
 Gaussian 09:  ES64L-G09RevD.01 24-Apr-2013
                23-Jul-2020 
 ******************************************
 %nprocshared=4
 Will use up to    4 processors via shared memory.
 %chk=cyclohexene_pm6_cpcmtoluene_2.chk
 ------------------------------------------------------------------
 # opt freq pm6 scrf=(cpcm,solvent=toluene) empiricaldispersion=gd3
 ------------------------------------------------------------------
 1/14=-1,18=20,19=15,26=1,38=1/1,3;
 2/9=110,12=2,17=6,18=5,40=1/2;
 3/5=2,16=1,25=1,41=3900000,70=2101,71=1,72=13,124=31/1,2,3;
 4/35=1/1;
 5/5=2,35=1,38=5,53=13/2;
 6/7=2,8=2,9=2,10=2,28=1/1;
 7//1,2,3,16;
 1/14=-1,18=20,19=15,26=1/3(2);
 2/9=110/2;
 99//99;
 2/9=110/2;
 3/5=2,16=1,25=1,41=3900000,70=2105,71=1,72=13,124=31,135=20/1,2,3;
 4/5=5,16=3,35=1/1;
 5/5=2,35=1,38=5,53=13/2;
 7//1,2,3,16;
 1/14=-1,18=20,19=15,26=1/3(-5);
 2/9=110/2;
 6/7=2,8=2,9=2,10=2,19=2,28=1/1;
 99/9=1/99;
 -------------------
 Title Card Required
 -------------------
 Symbolic Z-matrix:
 Charge =  0 Multiplicity = 1
 C                    -2.88311   0.22994  -0.22813 
 C                    -1.55595   0.8374   -0.70075 
 C                    -0.55049  -0.34551  -0.73421 
 C                    -1.32577  -1.56111  -0.20493 
 H                    -1.70725   1.2167   -1.74364 
 H                    -0.28379  -0.56532  -1.80123 
 C                    -3.71899  -2.06155   0.53499 
 H                    -3.73406  -2.06942   1.63922 
 H                    -4.71153  -1.73621   0.17537 
 H                    -3.53525  -3.09232   0.18246 
 N                    -2.66958  -1.15361   0.03103 
 O                    -0.92357  -2.68565  -0.02561 
 O                    -3.95105   0.77984  -0.09393 
 C                     0.74664  -0.16767   0.08186 
 H                     1.13529  -1.19218   0.34489 
 C                    -1.1926    2.03652   0.21108 
 H                    -2.15791   2.48646   0.57474 
 C                    -0.37814   1.60924   1.40407 
 H                    -0.54862   2.18287   2.31417 
 C                     0.50549   0.61075   1.34646 
 H                     1.10986   0.31166   2.20123 
 C                    -0.44254   3.11997  -0.57112 
 H                    -1.02799   3.48996  -1.42042 
 H                    -0.21803   3.98302   0.06876 
 H                     0.52003   2.75059  -0.96172 
 C                     1.81826   0.52457  -0.78072 
 H                     1.95575   0.03026  -1.75854 
 H                     1.62087   1.6124   -0.9139 
 C                     3.87232  -0.59852  -0.11198 
 C                     5.10355  -0.36729   0.68275 
 H                     5.19017  -1.103     1.50078 
 H                     6.00566  -0.47886   0.05713 
 H                     5.14011   0.63651   1.1377 
 O                     3.53031  -1.5787   -0.73488 
 O                     3.08703   0.53598  -0.06937 
 

 GradGradGradGradGradGradGradGradGradGradGradGradGradGradGradGradGradGrad
 Berny optimization.
 Initialization pass.
                           ----------------------------
                           !    Initial Parameters    !
                           ! (Angstroms and Degrees)  !
 --------------------------                            --------------------------
 ! Name  Definition              Value          Derivative Info.                !
 --------------------------------------------------------------------------------
 ! R1    R(1,2)                  1.5342         estimate D2E/DX2                !
 ! R2    R(1,11)                 1.4237         estimate D2E/DX2                !
 ! R3    R(1,13)                 1.2087         estimate D2E/DX2                !
 ! R4    R(2,3)                  1.5528         estimate D2E/DX2                !
 ! R5    R(2,5)                  1.12           estimate D2E/DX2                !
 ! R6    R(2,16)                 1.5496         estimate D2E/DX2                !
 ! R7    R(3,4)                  1.5359         estimate D2E/DX2                !
 ! R8    R(3,6)                  1.1216         estimate D2E/DX2                !
 ! R9    R(3,14)                 1.5428         estimate D2E/DX2                !
 ! R10   R(4,11)                 1.4239         estimate D2E/DX2                !
 ! R11   R(4,12)                 1.2077         estimate D2E/DX2                !
 ! R12   R(7,8)                  1.1044         estimate D2E/DX2                !
 ! R13   R(7,9)                  1.1047         estimate D2E/DX2                !
 ! R14   R(7,10)                 1.1048         estimate D2E/DX2                !
 ! R15   R(7,11)                 1.4763         estimate D2E/DX2                !
 ! R16   R(14,15)                1.1269         estimate D2E/DX2                !
 ! R17   R(14,20)                1.5044         estimate D2E/DX2                !
 ! R18   R(14,26)                1.54           estimate D2E/DX2                !
 ! R19   R(16,17)                1.1254         estimate D2E/DX2                !
 ! R20   R(16,18)                1.5064         estimate D2E/DX2                !
 ! R21   R(16,22)                1.5324         estimate D2E/DX2                !
 ! R22   R(18,19)                1.0892         estimate D2E/DX2                !
 ! R23   R(18,20)                1.3346         estimate D2E/DX2                !
 ! R24   R(20,21)                1.0887         estimate D2E/DX2                !
 ! R25   R(22,23)                1.0959         estimate D2E/DX2                !
 ! R26   R(22,24)                1.0976         estimate D2E/DX2                !
 ! R27   R(22,25)                1.1025         estimate D2E/DX2                !
 ! R28   R(26,27)                1.1043         estimate D2E/DX2                !
 ! R29   R(26,28)                1.1136         estimate D2E/DX2                !
 ! R30   R(26,35)                1.4546         estimate D2E/DX2                !
 ! R31   R(29,30)                1.4836         estimate D2E/DX2                !
 ! R32   R(29,34)                1.2107         estimate D2E/DX2                !
 ! R33   R(29,35)                1.3804         estimate D2E/DX2                !
 ! R34   R(30,31)                1.1036         estimate D2E/DX2                !
 ! R35   R(30,32)                1.1035         estimate D2E/DX2                !
 ! R36   R(30,33)                1.1027         estimate D2E/DX2                !
 ! A1    A(2,1,11)             108.1263         estimate D2E/DX2                !
 ! A2    A(2,1,13)             128.1989         estimate D2E/DX2                !
 ! A3    A(11,1,13)            123.6717         estimate D2E/DX2                !
 ! A4    A(1,2,3)              105.375          estimate D2E/DX2                !
 ! A5    A(1,2,5)              107.7028         estimate D2E/DX2                !
 ! A6    A(1,2,16)             109.1448         estimate D2E/DX2                !
 ! A7    A(3,2,5)              108.9891         estimate D2E/DX2                !
 ! A8    A(3,2,16)             116.7641         estimate D2E/DX2                !
 ! A9    A(5,2,16)             108.5138         estimate D2E/DX2                !
 ! A10   A(2,3,4)              105.5839         estimate D2E/DX2                !
 ! A11   A(2,3,6)              108.8902         estimate D2E/DX2                !
 ! A12   A(2,3,14)             116.4357         estimate D2E/DX2                !
 ! A13   A(4,3,6)              107.0233         estimate D2E/DX2                !
 ! A14   A(4,3,14)             109.4727         estimate D2E/DX2                !
 ! A15   A(6,3,14)             109.0195         estimate D2E/DX2                !
 ! A16   A(3,4,11)             107.8777         estimate D2E/DX2                !
 ! A17   A(3,4,12)             128.3193         estimate D2E/DX2                !
 ! A18   A(11,4,12)            123.791          estimate D2E/DX2                !
 ! A19   A(8,7,9)              108.3814         estimate D2E/DX2                !
 ! A20   A(8,7,10)             108.3417         estimate D2E/DX2                !
 ! A21   A(8,7,11)             110.8179         estimate D2E/DX2                !
 ! A22   A(9,7,10)             108.6833         estimate D2E/DX2                !
 ! A23   A(9,7,11)             110.268          estimate D2E/DX2                !
 ! A24   A(10,7,11)            110.2826         estimate D2E/DX2                !
 ! A25   A(1,11,4)             112.9224         estimate D2E/DX2                !
 ! A26   A(1,11,7)             123.5848         estimate D2E/DX2                !
 ! A27   A(4,11,7)             123.4625         estimate D2E/DX2                !
 ! A28   A(3,14,15)            107.9779         estimate D2E/DX2                !
 ! A29   A(3,14,20)            111.6853         estimate D2E/DX2                !
 ! A30   A(3,14,26)            109.9131         estimate D2E/DX2                !
 ! A31   A(15,14,20)           109.2378         estimate D2E/DX2                !
 ! A32   A(15,14,26)           107.4223         estimate D2E/DX2                !
 ! A33   A(20,14,26)           110.4745         estimate D2E/DX2                !
 ! A34   A(2,16,17)            107.3613         estimate D2E/DX2                !
 ! A35   A(2,16,18)            111.9188         estimate D2E/DX2                !
 ! A36   A(2,16,22)            111.1935         estimate D2E/DX2                !
 ! A37   A(17,16,18)           108.7388         estimate D2E/DX2                !
 ! A38   A(17,16,22)           107.5843         estimate D2E/DX2                !
 ! A39   A(18,16,22)           109.8861         estimate D2E/DX2                !
 ! A40   A(16,18,19)           115.323          estimate D2E/DX2                !
 ! A41   A(16,18,20)           122.4132         estimate D2E/DX2                !
 ! A42   A(19,18,20)           122.2566         estimate D2E/DX2                !
 ! A43   A(14,20,18)           121.9737         estimate D2E/DX2                !
 ! A44   A(14,20,21)           115.3928         estimate D2E/DX2                !
 ! A45   A(18,20,21)           122.6283         estimate D2E/DX2                !
 ! A46   A(16,22,23)           111.8883         estimate D2E/DX2                !
 ! A47   A(16,22,24)           111.0068         estimate D2E/DX2                !
 ! A48   A(16,22,25)           111.7951         estimate D2E/DX2                !
 ! A49   A(23,22,24)           107.1944         estimate D2E/DX2                !
 ! A50   A(23,22,25)           107.7566         estimate D2E/DX2                !
 ! A51   A(24,22,25)           106.9418         estimate D2E/DX2                !
 ! A52   A(14,26,27)           112.4213         estimate D2E/DX2                !
 ! A53   A(14,26,28)           112.5039         estimate D2E/DX2                !
 ! A54   A(14,26,35)           109.6676         estimate D2E/DX2                !
 ! A55   A(27,26,28)           110.6987         estimate D2E/DX2                !
 ! A56   A(27,26,35)           109.1442         estimate D2E/DX2                !
 ! A57   A(28,26,35)           101.8547         estimate D2E/DX2                !
 ! A58   A(30,29,34)           129.5124         estimate D2E/DX2                !
 ! A59   A(30,29,35)           109.1161         estimate D2E/DX2                !
 ! A60   A(34,29,35)           121.3697         estimate D2E/DX2                !
 ! A61   A(29,30,31)           110.9962         estimate D2E/DX2                !
 ! A62   A(29,30,32)           111.0387         estimate D2E/DX2                !
 ! A63   A(29,30,33)           112.9799         estimate D2E/DX2                !
 ! A64   A(31,30,32)           106.7792         estimate D2E/DX2                !
 ! A65   A(31,30,33)           107.3632         estimate D2E/DX2                !
 ! A66   A(32,30,33)           107.3887         estimate D2E/DX2                !
 ! A67   A(26,35,29)           118.3364         estimate D2E/DX2                !
 ! D1    D(11,1,2,3)             1.7116         estimate D2E/DX2                !
 ! D2    D(11,1,2,5)           117.944          estimate D2E/DX2                !
 ! D3    D(11,1,2,16)         -124.4337         estimate D2E/DX2                !
 ! D4    D(13,1,2,3)          -177.6569         estimate D2E/DX2                !
 ! D5    D(13,1,2,5)           -61.4246         estimate D2E/DX2                !
 ! D6    D(13,1,2,16)           56.1977         estimate D2E/DX2                !
 ! D7    D(2,1,11,4)             0.463          estimate D2E/DX2                !
 ! D8    D(2,1,11,7)           178.5225         estimate D2E/DX2                !
 ! D9    D(13,1,11,4)          179.8668         estimate D2E/DX2                !
 ! D10   D(13,1,11,7)           -2.0738         estimate D2E/DX2                !
 ! D11   D(1,2,3,4)             -3.0586         estimate D2E/DX2                !
 ! D12   D(1,2,3,6)            111.5659         estimate D2E/DX2                !
 ! D13   D(1,2,3,14)          -124.7376         estimate D2E/DX2                !
 ! D14   D(5,2,3,4)           -118.4083         estimate D2E/DX2                !
 ! D15   D(5,2,3,6)             -3.7837         estimate D2E/DX2                !
 ! D16   D(5,2,3,14)           119.9128         estimate D2E/DX2                !
 ! D17   D(16,2,3,4)           118.2485         estimate D2E/DX2                !
 ! D18   D(16,2,3,6)          -127.127          estimate D2E/DX2                !
 ! D19   D(16,2,3,14)           -3.4305         estimate D2E/DX2                !
 ! D20   D(1,2,16,17)          -29.968          estimate D2E/DX2                !
 ! D21   D(1,2,16,18)           89.2817         estimate D2E/DX2                !
 ! D22   D(1,2,16,22)         -147.4012         estimate D2E/DX2                !
 ! D23   D(3,2,16,17)         -149.2706         estimate D2E/DX2                !
 ! D24   D(3,2,16,18)          -30.021          estimate D2E/DX2                !
 ! D25   D(3,2,16,22)           93.2962         estimate D2E/DX2                !
 ! D26   D(5,2,16,17)           87.142          estimate D2E/DX2                !
 ! D27   D(5,2,16,18)         -153.6084         estimate D2E/DX2                !
 ! D28   D(5,2,16,22)          -30.2912         estimate D2E/DX2                !
 ! D29   D(2,3,4,11)             3.4054         estimate D2E/DX2                !
 ! D30   D(2,3,4,12)          -177.8276         estimate D2E/DX2                !
 ! D31   D(6,3,4,11)          -112.5012         estimate D2E/DX2                !
 ! D32   D(6,3,4,12)            66.2658         estimate D2E/DX2                !
 ! D33   D(14,3,4,11)          129.4801         estimate D2E/DX2                !
 ! D34   D(14,3,4,12)          -51.7529         estimate D2E/DX2                !
 ! D35   D(2,3,14,15)          155.244          estimate D2E/DX2                !
 ! D36   D(2,3,14,20)           35.1235         estimate D2E/DX2                !
 ! D37   D(2,3,14,26)          -87.8616         estimate D2E/DX2                !
 ! D38   D(4,3,14,15)           35.6391         estimate D2E/DX2                !
 ! D39   D(4,3,14,20)          -84.4815         estimate D2E/DX2                !
 ! D40   D(4,3,14,26)          152.5335         estimate D2E/DX2                !
 ! D41   D(6,3,14,15)          -81.1262         estimate D2E/DX2                !
 ! D42   D(6,3,14,20)          158.7532         estimate D2E/DX2                !
 ! D43   D(6,3,14,26)           35.7682         estimate D2E/DX2                !
 ! D44   D(3,4,11,1)            -2.4871         estimate D2E/DX2                !
 ! D45   D(3,4,11,7)           179.4508         estimate D2E/DX2                !
 ! D46   D(12,4,11,1)          178.677          estimate D2E/DX2                !
 ! D47   D(12,4,11,7)            0.6148         estimate D2E/DX2                !
 ! D48   D(8,7,11,1)           -89.2854         estimate D2E/DX2                !
 ! D49   D(8,7,11,4)            88.5721         estimate D2E/DX2                !
 ! D50   D(9,7,11,1)            30.7173         estimate D2E/DX2                !
 ! D51   D(9,7,11,4)          -151.4253         estimate D2E/DX2                !
 ! D52   D(10,7,11,1)          150.752          estimate D2E/DX2                !
 ! D53   D(10,7,11,4)          -31.3905         estimate D2E/DX2                !
 ! D54   D(3,14,20,18)         -35.3064         estimate D2E/DX2                !
 ! D55   D(3,14,20,21)         145.5099         estimate D2E/DX2                !
 ! D56   D(15,14,20,18)       -154.6847         estimate D2E/DX2                !
 ! D57   D(15,14,20,21)         26.1316         estimate D2E/DX2                !
 ! D58   D(26,14,20,18)         87.3585         estimate D2E/DX2                !
 ! D59   D(26,14,20,21)        -91.8252         estimate D2E/DX2                !
 ! D60   D(3,14,26,27)         -51.1476         estimate D2E/DX2                !
 ! D61   D(3,14,26,28)          74.6422         estimate D2E/DX2                !
 ! D62   D(3,14,26,35)        -172.763          estimate D2E/DX2                !
 ! D63   D(15,14,26,27)         66.0937         estimate D2E/DX2                !
 ! D64   D(15,14,26,28)       -168.1165         estimate D2E/DX2                !
 ! D65   D(15,14,26,35)        -55.5217         estimate D2E/DX2                !
 ! D66   D(20,14,26,27)       -174.8422         estimate D2E/DX2                !
 ! D67   D(20,14,26,28)        -49.0524         estimate D2E/DX2                !
 ! D68   D(20,14,26,35)         63.5425         estimate D2E/DX2                !
 ! D69   D(2,16,18,19)        -146.9411         estimate D2E/DX2                !
 ! D70   D(2,16,18,20)          34.0132         estimate D2E/DX2                !
 ! D71   D(17,16,18,19)        -28.5067         estimate D2E/DX2                !
 ! D72   D(17,16,18,20)        152.4476         estimate D2E/DX2                !
 ! D73   D(22,16,18,19)         89.0068         estimate D2E/DX2                !
 ! D74   D(22,16,18,20)        -90.0389         estimate D2E/DX2                !
 ! D75   D(2,16,22,23)          58.2851         estimate D2E/DX2                !
 ! D76   D(2,16,22,24)         177.9902         estimate D2E/DX2                !
 ! D77   D(2,16,22,25)         -62.6871         estimate D2E/DX2                !
 ! D78   D(17,16,22,23)        -59.0125         estimate D2E/DX2                !
 ! D79   D(17,16,22,24)         60.6926         estimate D2E/DX2                !
 ! D80   D(17,16,22,25)       -179.9847         estimate D2E/DX2                !
 ! D81   D(18,16,22,23)       -177.2421         estimate D2E/DX2                !
 ! D82   D(18,16,22,24)        -57.537          estimate D2E/DX2                !
 ! D83   D(18,16,22,25)         61.7856         estimate D2E/DX2                !
 ! D84   D(16,18,20,14)         -0.3423         estimate D2E/DX2                !
 ! D85   D(16,18,20,21)        178.782          estimate D2E/DX2                !
 ! D86   D(19,18,20,14)       -179.3223         estimate D2E/DX2                !
 ! D87   D(19,18,20,21)         -0.1979         estimate D2E/DX2                !
 ! D88   D(14,26,35,29)         81.9527         estimate D2E/DX2                !
 ! D89   D(27,26,35,29)        -41.6087         estimate D2E/DX2                !
 ! D90   D(28,26,35,29)       -158.6844         estimate D2E/DX2                !
 ! D91   D(34,29,30,31)        -59.6302         estimate D2E/DX2                !
 ! D92   D(34,29,30,32)         58.9846         estimate D2E/DX2                !
 ! D93   D(34,29,30,33)        179.709          estimate D2E/DX2                !
 ! D94   D(35,29,30,31)        120.8469         estimate D2E/DX2                !
 ! D95   D(35,29,30,32)       -120.5383         estimate D2E/DX2                !
 ! D96   D(35,29,30,33)          0.1861         estimate D2E/DX2                !
 ! D97   D(30,29,35,26)       -179.6216         estimate D2E/DX2                !
 ! D98   D(34,29,35,26)          0.8095         estimate D2E/DX2                !
 --------------------------------------------------------------------------------
 Trust Radius=3.00D-01 FncErr=1.00D-07 GrdErr=1.00D-07
 Number of steps in this run=    210 maximum allowed number of steps=    210.
 GradGradGradGradGradGradGradGradGradGradGradGradGradGradGradGradGradGrad

                          Input orientation:                          
 ---------------------------------------------------------------------
 Center     Atomic      Atomic             Coordinates (Angstroms)
 Number     Number       Type             X           Y           Z
 ---------------------------------------------------------------------
      1          6           0       -2.883109    0.229939   -0.228133
      2          6           0       -1.555949    0.837400   -0.700753
      3          6           0       -0.550490   -0.345505   -0.734210
      4          6           0       -1.325772   -1.561105   -0.204928
      5          1           0       -1.707253    1.216695   -1.743644
      6          1           0       -0.283790   -0.565320   -1.801233
      7          6           0       -3.718989   -2.061552    0.534989
      8          1           0       -3.734062   -2.069418    1.639220
      9          1           0       -4.711529   -1.736213    0.175367
     10          1           0       -3.535248   -3.092316    0.182462
     11          7           0       -2.669578   -1.153609    0.031028
     12          8           0       -0.923574   -2.685649   -0.025609
     13          8           0       -3.951050    0.779842   -0.093931
     14          6           0        0.746640   -0.167669    0.081860
     15          1           0        1.135293   -1.192178    0.344893
     16          6           0       -1.192599    2.036517    0.211079
     17          1           0       -2.157909    2.486457    0.574744
     18          6           0       -0.378137    1.609236    1.404067
     19          1           0       -0.548617    2.182868    2.314171
     20          6           0        0.505486    0.610749    1.346464
     21          1           0        1.109857    0.311661    2.201228
     22          6           0       -0.442537    3.119973   -0.571122
     23          1           0       -1.027993    3.489962   -1.420416
     24          1           0       -0.218029    3.983015    0.068759
     25          1           0        0.520026    2.750591   -0.961716
     26          6           0        1.818261    0.524566   -0.780723
     27          1           0        1.955751    0.030263   -1.758544
     28          1           0        1.620870    1.612397   -0.913899
     29          6           0        3.872316   -0.598524   -0.111984
     30          6           0        5.103552   -0.367294    0.682748
     31          1           0        5.190171   -1.103002    1.500784
     32          1           0        6.005664   -0.478861    0.057127
     33          1           0        5.140107    0.636508    1.137702
     34          8           0        3.530307   -1.578700   -0.734877
     35          8           0        3.087029    0.535977   -0.069374
 ---------------------------------------------------------------------
                    Distance matrix (angstroms):
                    1          2          3          4          5
     1  C    0.000000
     2  C    1.534188   0.000000
     3  C    2.455272   1.552846   0.000000
     4  C    2.373537   2.460010   1.535866   0.000000
     5  H    2.157104   1.119991   2.190326   3.198335   0.000000
     6  H    3.140627   2.190221   1.121600   2.150698   2.281478
     7  C    2.555774   3.822267   3.820349   2.554489   4.470588
     8  H    3.081910   4.320792   4.328993   3.075569   5.133251
     9  H    2.715085   4.165184   4.480585   3.411545   4.629033
    10  H    3.410462   4.487801   4.158610   2.715964   5.061524
    11  N    1.423715   2.395786   2.393565   1.423918   3.113498
    12  O    3.518728   3.642471   2.473374   1.207691   4.335215
    13  O    1.208678   2.471448   3.638705   3.519153   2.819046
    14  C    3.664596   2.631456   1.542771   2.513723   3.357159
    15  H    4.300969   3.529213   2.173288   2.548578   4.271384
    16  C    2.512858   1.549627   2.641951   3.624042   2.181265
    17  H    2.502479   2.169939   3.509582   4.205128   2.681475
    18  C    3.292631   2.532437   2.902231   3.679394   3.439291
    19  H    3.965740   3.451778   3.960467   4.578992   4.329179
    20  C    3.755922   2.914101   2.521649   3.236862   3.848656
    21  H    4.674639   3.975477   3.435901   3.902452   4.931248
    22  C    3.798201   2.542957   3.470993   4.777729   2.568420
    23  H    3.935828   2.798703   3.925518   5.203783   2.394496
    24  H    4.612632   3.503865   4.414904   5.660324   3.626999
    25  H    4.298041   2.835150   3.283835   4.750834   2.815141
    26  C    4.742894   3.389624   2.523919   3.816609   3.719611
    27  H    5.079035   3.755320   2.733442   3.964160   3.850382
    28  H    4.761018   3.276924   2.929244   4.388218   3.452747
    29  C    6.807026   5.645758   4.473522   5.287279   6.090068
    30  C    8.060592   6.907555   5.828931   6.599194   7.401585
    31  H    8.363237   7.356770   6.206786   6.751061   7.967544
    32  H    8.921550   7.712647   6.605085   7.415516   8.099801
    33  H    8.148791   6.946758   6.070527   6.959867   7.451517
    34  O    6.682804   5.631048   4.263059   4.884942   6.021950
    35  O    5.980085   4.695396   3.801389   4.887631   5.123641
                    6          7          8          9         10
     6  H    0.000000
     7  C    4.415567   0.000000
     8  H    5.099353   1.104362   0.000000
     9  H    4.988267   1.104676   1.791461   0.000000
    10  H    4.570857   1.104767   1.791087   1.795189   0.000000
    11  N    3.065167   1.476347   2.134974   2.128339   2.128591
    12  O    2.838654   2.918581   3.324190   3.910297   2.651323
    13  O    4.262996   2.919403   3.342032   2.642231   3.904215
    14  C    2.183106   4.871751   5.110647   5.679849   5.186352
    15  H    2.648132   4.935180   5.114240   5.874525   5.044885
    16  C    3.412461   4.825115   5.035606   5.159228   5.638595
    17  H    4.297782   4.808632   4.936939   4.950901   5.759658
    18  C    3.874473   5.038975   4.984980   5.610706   5.793467
    19  H    4.955726   5.588546   5.355796   6.104385   6.425863
    20  C    3.451679   5.064175   5.024218   5.839259   5.603135
    21  H    4.327937   5.632606   5.426688   6.495109   6.102416
    22  C    3.888413   6.229512   6.530661   6.508770   6.980350
    23  H    4.140552   6.471814   6.898615   6.589982   7.223706
    24  H    4.918185   7.000777   7.173617   7.274096   7.815189
    25  H    3.513712   6.585294   6.935028   6.985237   7.203746
    26  C    2.578354   6.251419   6.588867   6.975915   6.532199
    27  H    2.317776   6.468281   6.951793   7.163314   6.608258
    28  H    3.026143   6.641632   6.982082   7.245617   7.065542
    29  C    4.486411   7.758024   7.942747   8.663677   7.821618
    30  C    5.935725   8.984964   9.050717   9.923064   9.072205
    31  H    6.415346   9.012475   8.977475  10.010062   9.045899
    32  H    6.558827   9.864185   9.994756  10.791346   9.893172
    33  H    6.284933   9.280430   9.291094  10.178930   9.490964
    34  O    4.087957   7.375500   7.658211   8.293444   7.283860
    35  O    3.946468   7.309876   7.498977   8.126515   7.555295
                   11         12         13         14         15
    11  N    0.000000
    12  O    2.323550   0.000000
    13  O    2.322933   4.602163   0.000000
    14  C    3.556010   3.023473   4.795516   0.000000
    15  H    3.817989   2.570343   5.472871   1.126879   0.000000
    16  C    3.520055   4.735741   3.046525   2.938670   3.982645
    17  H    3.715846   5.351139   2.564179   3.965315   4.942708
    18  C    3.843078   4.559332   3.962020   2.484099   3.355628
    19  H    4.565446   5.414575   4.398180   3.490835   4.254944
    20  C    3.863206   3.845912   4.686581   1.504431   2.156466
    21  H    4.597925   4.251766   5.576713   2.203044   2.389175
    22  C    4.856521   5.851002   4.244242   3.556560   4.682230
    23  H    5.134612   6.332027   4.201021   4.334100   5.451473
    24  H    5.691786   6.706547   4.921609   4.261330   5.356338
    25  H    5.138277   5.702016   4.962602   3.107514   4.198953
    26  C    4.859620   4.288745   5.815651   1.540003   2.163485
    27  H    5.098803   4.320851   6.182484   2.210930   2.567481
    28  H    5.191495   5.073111   5.693135   2.219110   3.112231
    29  C    6.566959   5.231072   7.943883   3.161180   2.837685
    30  C    7.839935   6.496367   9.159966   4.402681   4.067144
    31  H    7.996149   6.497117   9.468376   4.757432   4.217354
    32  H    8.701482   7.272627  10.037096   5.268281   4.930735
    33  H    8.088289   7.011294   9.175326   4.589559   4.473385
    34  O    6.261460   4.643862   7.870466   3.225968   2.655446
    35  O    6.000275   5.144485   7.042345   2.448553   2.639585
                   16         17         18         19         20
    16  C    0.000000
    17  H    1.125398   0.000000
    18  C    1.506366   2.150554   0.000000
    19  H    2.204343   2.389057   1.089223   0.000000
    20  C    2.491065   3.347761   1.334573   2.125829   0.000000
    21  H    3.498160   4.248939   2.129153   2.502940   1.088733
    22  C    1.532419   2.157974   2.487538   3.035512   3.297285
    23  H    2.191204   2.502878   3.455018   3.985654   4.277505
    24  H    2.181489   2.501768   2.728279   2.896842   3.678068
    25  H    2.195093   3.098679   2.776025   3.492240   3.147512
    26  C    3.512114   4.636403   3.282374   4.234436   2.501146
    27  H    4.220969   5.329101   4.235835   5.243336   3.475817
    28  H    3.059585   4.154420   3.060883   3.930973   2.712309
    29  C    5.718494   6.808254   5.023840   5.759081   3.863283
    30  C    6.755908   7.802844   5.871617   6.411855   4.747557
    31  H    7.229085   8.230191   6.194485   6.662749   4.990694
    32  H    7.626652   8.700860   6.850351   7.425473   5.753399
    33  H    6.551475   7.549852   5.609649   6.011397   4.639392
    34  O    6.022497   7.113115   5.478499   6.331170   4.274951
    35  O    4.543731   5.632818   3.915391   4.648813   2.945259
                   21         22         23         24         25
    21  H    0.000000
    22  C    4.240574   0.000000
    23  H    5.271461   1.095879   0.000000
    24  H    4.448544   1.097585   1.765442   0.000000
    25  H    4.037387   1.102513   1.775792   1.767901   0.000000
    26  C    3.072328   3.448373   4.159801   4.102312   2.583285
    27  H    4.058881   4.087550   4.581111   4.867094   3.177487
    28  H    3.414244   2.578358   3.286074   3.157055   1.584181
    29  C    3.716257   5.714541   6.514656   6.144436   4.814194
    30  C    4.326241   6.670257   7.543048   6.900826   5.782230
    31  H    4.375026   7.338509   8.264036   7.560879   6.536386
    32  H    5.402871   7.411181   8.210178   7.657860   6.446676
    33  H    4.180853   6.344572   7.261654   6.407134   5.497459
    34  O    4.248853   6.155309   6.851233   6.754889   5.277879
    35  O    3.019132   4.403024   5.242590   4.777506   3.505752
                   26         27         28         29         30
    26  C    0.000000
    27  H    1.104252   0.000000
    28  H    1.113587   1.824478   0.000000
    29  C    2.434684   2.603796   3.255802   0.000000
    30  C    3.705442   4.003325   4.312486   1.483580   0.000000
    31  H    4.384522   4.729586   5.093525   2.142956   1.103609
    32  H    4.386707   4.467400   4.954056   2.143383   1.103474
    33  H    3.837649   4.346941   4.188849   2.166636   1.102696
    34  O    2.712366   2.473031   3.723050   1.210665   2.439726
    35  O    1.454620   2.094954   2.005374   1.380429   2.334085
                   31         32         33         34         35
    31  H    0.000000
    32  H    1.771645   0.000000
    33  H    1.777704   1.777886   0.000000
    34  O    2.824822   2.822111   3.317402   0.000000
    35  O    3.094326   3.092625   2.383751   2.260807   0.000000
 Stoichiometry    C13H17NO4
 Framework group  C1[X(C13H17NO4)]
 Deg. of freedom    99
 Full point group                 C1      NOp   1
 Largest Abelian subgroup         C1      NOp   1
 Largest concise Abelian subgroup C1      NOp   1
                         Standard orientation:                         
 ---------------------------------------------------------------------
 Center     Atomic      Atomic             Coordinates (Angstroms)
 Number     Number       Type             X           Y           Z
 ---------------------------------------------------------------------
      1          6           0       -2.883109    0.229939   -0.228133
      2          6           0       -1.555949    0.837400   -0.700753
      3          6           0       -0.550490   -0.345505   -0.734210
      4          6           0       -1.325772   -1.561105   -0.204928
      5          1           0       -1.707253    1.216695   -1.743644
      6          1           0       -0.283790   -0.565320   -1.801233
      7          6           0       -3.718989   -2.061552    0.534989
      8          1           0       -3.734062   -2.069418    1.639220
      9          1           0       -4.711529   -1.736213    0.175367
     10          1           0       -3.535248   -3.092316    0.182462
     11          7           0       -2.669578   -1.153609    0.031028
     12          8           0       -0.923574   -2.685649   -0.025609
     13          8           0       -3.951050    0.779842   -0.093931
     14          6           0        0.746640   -0.167669    0.081860
     15          1           0        1.135293   -1.192178    0.344893
     16          6           0       -1.192599    2.036517    0.211079
     17          1           0       -2.157909    2.486457    0.574744
     18          6           0       -0.378137    1.609236    1.404067
     19          1           0       -0.548617    2.182868    2.314171
     20          6           0        0.505486    0.610749    1.346464
     21          1           0        1.109857    0.311661    2.201228
     22          6           0       -0.442537    3.119973   -0.571122
     23          1           0       -1.027993    3.489962   -1.420416
     24          1           0       -0.218029    3.983015    0.068759
     25          1           0        0.520026    2.750591   -0.961716
     26          6           0        1.818261    0.524566   -0.780723
     27          1           0        1.955751    0.030263   -1.758544
     28          1           0        1.620870    1.612397   -0.913899
     29          6           0        3.872316   -0.598524   -0.111984
     30          6           0        5.103552   -0.367294    0.682748
     31          1           0        5.190171   -1.103002    1.500784
     32          1           0        6.005664   -0.478861    0.057127
     33          1           0        5.140107    0.636508    1.137702
     34          8           0        3.530307   -1.578700   -0.734877
     35          8           0        3.087029    0.535977   -0.069374
 ---------------------------------------------------------------------
 Rotational constants (GHZ):      0.7420374      0.2696703      0.2180986
 Standard basis: VSTO-6G (5D, 7F)
 There are    89 symmetry adapted cartesian basis functions of A   symmetry.
 There are    89 symmetry adapted basis functions of A   symmetry.
    89 basis functions,   534 primitive gaussians,    89 cartesian basis functions
    49 alpha electrons       49 beta electrons
       nuclear repulsion energy       787.2283475258 Hartrees.
 Integral buffers will be    131072 words long.
 Regular integral format.
 Two-electron integral symmetry is turned off.
 Nuclear repulsion after empirical dispersion term =      787.2161662382 Hartrees.
 ------------------------------------------------------------------------------
 Polarizable Continuum Model (PCM)
 =================================
 Model                : C-PCM.
 Atomic radii         : UFF (Universal Force Field).
 Polarization charges : Total charges.
 Charge compensation  : None.
 Solution method      : On-the-fly selection.
 Cavity type          : Scaled VdW (van der Waals Surface) (Alpha=1.100).
 Cavity algorithm     : GePol (No added spheres)
                        Default sphere list used, NSphG=   35.
                        Lebedev-Laikov grids with approx.  5.0 points / Ang**2.
                        Smoothing algorithm: Karplus/York (Gamma=1.0000).
                        Polarization charges: spherical gaussians, with
                                              point-specific exponents (IZeta= 3).
                        Self-potential: point-specific (ISelfS= 7).
                        Self-field    : sphere-specific E.n sum rule (ISelfD= 2).
 1st derivatives      : Analytical E(r).r(x)/FMM algorithm (CHGder, D1EAlg=3).
                        Cavity 1st derivative terms included.
 Solvent              : Toluene, Eps=   2.374100 Eps(inf)=   2.238315
 ------------------------------------------------------------------------------
 Do NDO integrals.
 One-electron integrals computed using PRISM.
 NBasis=    89 RedAO= F EigKep=  0.00D+00  NBF=    89
 NBsUse=    89 1.00D-04 EigRej=  0.00D+00 NBFU=    89
 Simple Huckel Guess.
 Overlap will be assumed to be unity.
 Keep J ints in memory in canonical form, NReq=10053133.
 Requested convergence on RMS density matrix=1.00D-08 within 128 cycles.
 Requested convergence on MAX density matrix=1.00D-06.
 Requested convergence on             energy=1.00D-06.
 No special actions if energy rises.
 Inv3:  Mode=1 IEnd=    18570432.
 Iteration    1 A*A^-1 deviation from unit magnitude is 6.22D-15 for   2482.
 Iteration    1 A*A^-1 deviation from orthogonality  is 2.46D-15 for   2483   2290.
 Iteration    1 A^-1*A deviation from unit magnitude is 6.22D-15 for   2482.
 Iteration    1 A^-1*A deviation from orthogonality  is 1.58D-15 for   2450   1229.
 Error on total polarization charges = -0.00026
 SCF Done:  E(RPM6D3) = -0.303313956955     A.U. after   15 cycles
            NFock= 14  Conv=0.71D-08     -V/T= 0.9953

 **********************************************************************

            Population analysis using the SCF density.

 **********************************************************************

 Orbital symmetries:
       Occupied  (A) (A) (A) (A) (A) (A) (A) (A) (A) (A) (A) (A)
                 (A) (A) (A) (A) (A) (A) (A) (A) (A) (A) (A) (A)
                 (A) (A) (A) (A) (A) (A) (A) (A) (A) (A) (A) (A)
                 (A) (A) (A) (A) (A) (A) (A) (A) (A) (A) (A) (A)
                 (A)
       Virtual   (A) (A) (A) (A) (A) (A) (A) (A) (A) (A) (A) (A)
                 (A) (A) (A) (A) (A) (A) (A) (A) (A) (A) (A) (A)
                 (A) (A) (A) (A) (A) (A) (A) (A) (A) (A) (A) (A)
                 (A) (A) (A) (A)
 The electronic state is 1-A.
 Alpha  occ. eigenvalues --   -1.23344  -1.19425  -1.18887  -1.15725  -1.13122
 Alpha  occ. eigenvalues --   -1.11124  -1.03526  -1.02136  -0.99828  -0.94883
 Alpha  occ. eigenvalues --   -0.90284  -0.89101  -0.83967  -0.79895  -0.79178
 Alpha  occ. eigenvalues --   -0.76511  -0.73262  -0.67176  -0.65868  -0.64695
 Alpha  occ. eigenvalues --   -0.63084  -0.62342  -0.61484  -0.60759  -0.59596
 Alpha  occ. eigenvalues --   -0.57591  -0.56491  -0.55947  -0.54733  -0.54367
 Alpha  occ. eigenvalues --   -0.54197  -0.53055  -0.52442  -0.51743  -0.51210
 Alpha  occ. eigenvalues --   -0.50707  -0.50202  -0.49826  -0.48587  -0.48039
 Alpha  occ. eigenvalues --   -0.45681  -0.44514  -0.43440  -0.42665  -0.42348
 Alpha  occ. eigenvalues --   -0.41656  -0.39319  -0.38875  -0.37798
 Alpha virt. eigenvalues --   -0.00842   0.01771   0.02330   0.02437   0.03345
 Alpha virt. eigenvalues --    0.03856   0.07991   0.08120   0.09665   0.10217
 Alpha virt. eigenvalues --    0.11312   0.12029   0.12332   0.12647   0.12785
 Alpha virt. eigenvalues --    0.13447   0.14075   0.14485   0.15298   0.15618
 Alpha virt. eigenvalues --    0.16238   0.17226   0.17412   0.17835   0.17861
 Alpha virt. eigenvalues --    0.18477   0.18589   0.18799   0.19073   0.19262
 Alpha virt. eigenvalues --    0.19501   0.19517   0.20243   0.20739   0.21452
 Alpha virt. eigenvalues --    0.21534   0.21631   0.21794   0.21996   0.24094
          Condensed to atoms (all electrons):
               1          2          3          4          5          6
     1  C    3.401482   0.000000   0.000000   0.000000   0.000000   0.000000
     2  C    0.000000   4.240169   0.000000   0.000000   0.000000   0.000000
     3  C    0.000000   0.000000   4.225427   0.000000   0.000000   0.000000
     4  C    0.000000   0.000000   0.000000   3.399541   0.000000   0.000000
     5  H    0.000000   0.000000   0.000000   0.000000   0.815135   0.000000
     6  H    0.000000   0.000000   0.000000   0.000000   0.000000   0.816670
     7  C    0.000000   0.000000   0.000000   0.000000   0.000000   0.000000
     8  H    0.000000   0.000000   0.000000   0.000000   0.000000   0.000000
     9  H    0.000000   0.000000   0.000000   0.000000   0.000000   0.000000
    10  H    0.000000   0.000000   0.000000   0.000000   0.000000   0.000000
    11  N    0.000000   0.000000   0.000000   0.000000   0.000000   0.000000
    12  O    0.000000   0.000000   0.000000   0.000000   0.000000   0.000000
    13  O    0.000000   0.000000   0.000000   0.000000   0.000000   0.000000
    14  C    0.000000   0.000000   0.000000   0.000000   0.000000   0.000000
    15  H    0.000000   0.000000   0.000000   0.000000   0.000000   0.000000
    16  C    0.000000   0.000000   0.000000   0.000000   0.000000   0.000000
    17  H    0.000000   0.000000   0.000000   0.000000   0.000000   0.000000
    18  C    0.000000   0.000000   0.000000   0.000000   0.000000   0.000000
    19  H    0.000000   0.000000   0.000000   0.000000   0.000000   0.000000
    20  C    0.000000   0.000000   0.000000   0.000000   0.000000   0.000000
    21  H    0.000000   0.000000   0.000000   0.000000   0.000000   0.000000
    22  C    0.000000   0.000000   0.000000   0.000000   0.000000   0.000000
    23  H    0.000000   0.000000   0.000000   0.000000   0.000000   0.000000
    24  H    0.000000   0.000000   0.000000   0.000000   0.000000   0.000000
    25  H    0.000000   0.000000   0.000000   0.000000   0.000000   0.000000
    26  C    0.000000   0.000000   0.000000   0.000000   0.000000   0.000000
    27  H    0.000000   0.000000   0.000000   0.000000   0.000000   0.000000
    28  H    0.000000   0.000000   0.000000   0.000000   0.000000   0.000000
    29  C    0.000000   0.000000   0.000000   0.000000   0.000000   0.000000
    30  C    0.000000   0.000000   0.000000   0.000000   0.000000   0.000000
    31  H    0.000000   0.000000   0.000000   0.000000   0.000000   0.000000
    32  H    0.000000   0.000000   0.000000   0.000000   0.000000   0.000000
    33  H    0.000000   0.000000   0.000000   0.000000   0.000000   0.000000
    34  O    0.000000   0.000000   0.000000   0.000000   0.000000   0.000000
    35  O    0.000000   0.000000   0.000000   0.000000   0.000000   0.000000
               7          8          9         10         11         12
     1  C    0.000000   0.000000   0.000000   0.000000   0.000000   0.000000
     2  C    0.000000   0.000000   0.000000   0.000000   0.000000   0.000000
     3  C    0.000000   0.000000   0.000000   0.000000   0.000000   0.000000
     4  C    0.000000   0.000000   0.000000   0.000000   0.000000   0.000000
     5  H    0.000000   0.000000   0.000000   0.000000   0.000000   0.000000
     6  H    0.000000   0.000000   0.000000   0.000000   0.000000   0.000000
     7  C    4.261128   0.000000   0.000000   0.000000   0.000000   0.000000
     8  H    0.000000   0.841155   0.000000   0.000000   0.000000   0.000000
     9  H    0.000000   0.000000   0.831700   0.000000   0.000000   0.000000
    10  H    0.000000   0.000000   0.000000   0.831606   0.000000   0.000000
    11  N    0.000000   0.000000   0.000000   0.000000   5.464548   0.000000
    12  O    0.000000   0.000000   0.000000   0.000000   0.000000   6.506592
    13  O    0.000000   0.000000   0.000000   0.000000   0.000000   0.000000
    14  C    0.000000   0.000000   0.000000   0.000000   0.000000   0.000000
    15  H    0.000000   0.000000   0.000000   0.000000   0.000000   0.000000
    16  C    0.000000   0.000000   0.000000   0.000000   0.000000   0.000000
    17  H    0.000000   0.000000   0.000000   0.000000   0.000000   0.000000
    18  C    0.000000   0.000000   0.000000   0.000000   0.000000   0.000000
    19  H    0.000000   0.000000   0.000000   0.000000   0.000000   0.000000
    20  C    0.000000   0.000000   0.000000   0.000000   0.000000   0.000000
    21  H    0.000000   0.000000   0.000000   0.000000   0.000000   0.000000
    22  C    0.000000   0.000000   0.000000   0.000000   0.000000   0.000000
    23  H    0.000000   0.000000   0.000000   0.000000   0.000000   0.000000
    24  H    0.000000   0.000000   0.000000   0.000000   0.000000   0.000000
    25  H    0.000000   0.000000   0.000000   0.000000   0.000000   0.000000
    26  C    0.000000   0.000000   0.000000   0.000000   0.000000   0.000000
    27  H    0.000000   0.000000   0.000000   0.000000   0.000000   0.000000
    28  H    0.000000   0.000000   0.000000   0.000000   0.000000   0.000000
    29  C    0.000000   0.000000   0.000000   0.000000   0.000000   0.000000
    30  C    0.000000   0.000000   0.000000   0.000000   0.000000   0.000000
    31  H    0.000000   0.000000   0.000000   0.000000   0.000000   0.000000
    32  H    0.000000   0.000000   0.000000   0.000000   0.000000   0.000000
    33  H    0.000000   0.000000   0.000000   0.000000   0.000000   0.000000
    34  O    0.000000   0.000000   0.000000   0.000000   0.000000   0.000000
    35  O    0.000000   0.000000   0.000000   0.000000   0.000000   0.000000
              13         14         15         16         17         18
     1  C    0.000000   0.000000   0.000000   0.000000   0.000000   0.000000
     2  C    0.000000   0.000000   0.000000   0.000000   0.000000   0.000000
     3  C    0.000000   0.000000   0.000000   0.000000   0.000000   0.000000
     4  C    0.000000   0.000000   0.000000   0.000000   0.000000   0.000000
     5  H    0.000000   0.000000   0.000000   0.000000   0.000000   0.000000
     6  H    0.000000   0.000000   0.000000   0.000000   0.000000   0.000000
     7  C    0.000000   0.000000   0.000000   0.000000   0.000000   0.000000
     8  H    0.000000   0.000000   0.000000   0.000000   0.000000   0.000000
     9  H    0.000000   0.000000   0.000000   0.000000   0.000000   0.000000
    10  H    0.000000   0.000000   0.000000   0.000000   0.000000   0.000000
    11  N    0.000000   0.000000   0.000000   0.000000   0.000000   0.000000
    12  O    0.000000   0.000000   0.000000   0.000000   0.000000   0.000000
    13  O    6.514180   0.000000   0.000000   0.000000   0.000000   0.000000
    14  C    0.000000   4.110516   0.000000   0.000000   0.000000   0.000000
    15  H    0.000000   0.000000   0.829979   0.000000   0.000000   0.000000
    16  C    0.000000   0.000000   0.000000   4.015001   0.000000   0.000000
    17  H    0.000000   0.000000   0.000000   0.000000   0.855836   0.000000
    18  C    0.000000   0.000000   0.000000   0.000000   0.000000   4.178543
    19  H    0.000000   0.000000   0.000000   0.000000   0.000000   0.000000
    20  C    0.000000   0.000000   0.000000   0.000000   0.000000   0.000000
    21  H    0.000000   0.000000   0.000000   0.000000   0.000000   0.000000
    22  C    0.000000   0.000000   0.000000   0.000000   0.000000   0.000000
    23  H    0.000000   0.000000   0.000000   0.000000   0.000000   0.000000
    24  H    0.000000   0.000000   0.000000   0.000000   0.000000   0.000000
    25  H    0.000000   0.000000   0.000000   0.000000   0.000000   0.000000
    26  C    0.000000   0.000000   0.000000   0.000000   0.000000   0.000000
    27  H    0.000000   0.000000   0.000000   0.000000   0.000000   0.000000
    28  H    0.000000   0.000000   0.000000   0.000000   0.000000   0.000000
    29  C    0.000000   0.000000   0.000000   0.000000   0.000000   0.000000
    30  C    0.000000   0.000000   0.000000   0.000000   0.000000   0.000000
    31  H    0.000000   0.000000   0.000000   0.000000   0.000000   0.000000
    32  H    0.000000   0.000000   0.000000   0.000000   0.000000   0.000000
    33  H    0.000000   0.000000   0.000000   0.000000   0.000000   0.000000
    34  O    0.000000   0.000000   0.000000   0.000000   0.000000   0.000000
    35  O    0.000000   0.000000   0.000000   0.000000   0.000000   0.000000
              19         20         21         22         23         24
     1  C    0.000000   0.000000   0.000000   0.000000   0.000000   0.000000
     2  C    0.000000   0.000000   0.000000   0.000000   0.000000   0.000000
     3  C    0.000000   0.000000   0.000000   0.000000   0.000000   0.000000
     4  C    0.000000   0.000000   0.000000   0.000000   0.000000   0.000000
     5  H    0.000000   0.000000   0.000000   0.000000   0.000000   0.000000
     6  H    0.000000   0.000000   0.000000   0.000000   0.000000   0.000000
     7  C    0.000000   0.000000   0.000000   0.000000   0.000000   0.000000
     8  H    0.000000   0.000000   0.000000   0.000000   0.000000   0.000000
     9  H    0.000000   0.000000   0.000000   0.000000   0.000000   0.000000
    10  H    0.000000   0.000000   0.000000   0.000000   0.000000   0.000000
    11  N    0.000000   0.000000   0.000000   0.000000   0.000000   0.000000
    12  O    0.000000   0.000000   0.000000   0.000000   0.000000   0.000000
    13  O    0.000000   0.000000   0.000000   0.000000   0.000000   0.000000
    14  C    0.000000   0.000000   0.000000   0.000000   0.000000   0.000000
    15  H    0.000000   0.000000   0.000000   0.000000   0.000000   0.000000
    16  C    0.000000   0.000000   0.000000   0.000000   0.000000   0.000000
    17  H    0.000000   0.000000   0.000000   0.000000   0.000000   0.000000
    18  C    0.000000   0.000000   0.000000   0.000000   0.000000   0.000000
    19  H    0.845665   0.000000   0.000000   0.000000   0.000000   0.000000
    20  C    0.000000   4.160074   0.000000   0.000000   0.000000   0.000000
    21  H    0.000000   0.000000   0.845152   0.000000   0.000000   0.000000
    22  C    0.000000   0.000000   0.000000   4.488156   0.000000   0.000000
    23  H    0.000000   0.000000   0.000000   0.000000   0.840262   0.000000
    24  H    0.000000   0.000000   0.000000   0.000000   0.000000   0.836296
    25  H    0.000000   0.000000   0.000000   0.000000   0.000000   0.000000
    26  C    0.000000   0.000000   0.000000   0.000000   0.000000   0.000000
    27  H    0.000000   0.000000   0.000000   0.000000   0.000000   0.000000
    28  H    0.000000   0.000000   0.000000   0.000000   0.000000   0.000000
    29  C    0.000000   0.000000   0.000000   0.000000   0.000000   0.000000
    30  C    0.000000   0.000000   0.000000   0.000000   0.000000   0.000000
    31  H    0.000000   0.000000   0.000000   0.000000   0.000000   0.000000
    32  H    0.000000   0.000000   0.000000   0.000000   0.000000   0.000000
    33  H    0.000000   0.000000   0.000000   0.000000   0.000000   0.000000
    34  O    0.000000   0.000000   0.000000   0.000000   0.000000   0.000000
    35  O    0.000000   0.000000   0.000000   0.000000   0.000000   0.000000
              25         26         27         28         29         30
     1  C    0.000000   0.000000   0.000000   0.000000   0.000000   0.000000
     2  C    0.000000   0.000000   0.000000   0.000000   0.000000   0.000000
     3  C    0.000000   0.000000   0.000000   0.000000   0.000000   0.000000
     4  C    0.000000   0.000000   0.000000   0.000000   0.000000   0.000000
     5  H    0.000000   0.000000   0.000000   0.000000   0.000000   0.000000
     6  H    0.000000   0.000000   0.000000   0.000000   0.000000   0.000000
     7  C    0.000000   0.000000   0.000000   0.000000   0.000000   0.000000
     8  H    0.000000   0.000000   0.000000   0.000000   0.000000   0.000000
     9  H    0.000000   0.000000   0.000000   0.000000   0.000000   0.000000
    10  H    0.000000   0.000000   0.000000   0.000000   0.000000   0.000000
    11  N    0.000000   0.000000   0.000000   0.000000   0.000000   0.000000
    12  O    0.000000   0.000000   0.000000   0.000000   0.000000   0.000000
    13  O    0.000000   0.000000   0.000000   0.000000   0.000000   0.000000
    14  C    0.000000   0.000000   0.000000   0.000000   0.000000   0.000000
    15  H    0.000000   0.000000   0.000000   0.000000   0.000000   0.000000
    16  C    0.000000   0.000000   0.000000   0.000000   0.000000   0.000000
    17  H    0.000000   0.000000   0.000000   0.000000   0.000000   0.000000
    18  C    0.000000   0.000000   0.000000   0.000000   0.000000   0.000000
    19  H    0.000000   0.000000   0.000000   0.000000   0.000000   0.000000
    20  C    0.000000   0.000000   0.000000   0.000000   0.000000   0.000000
    21  H    0.000000   0.000000   0.000000   0.000000   0.000000   0.000000
    22  C    0.000000   0.000000   0.000000   0.000000   0.000000   0.000000
    23  H    0.000000   0.000000   0.000000   0.000000   0.000000   0.000000
    24  H    0.000000   0.000000   0.000000   0.000000   0.000000   0.000000
    25  H    0.842490   0.000000   0.000000   0.000000   0.000000   0.000000
    26  C    0.000000   4.019313   0.000000   0.000000   0.000000   0.000000
    27  H    0.000000   0.000000   0.854320   0.000000   0.000000   0.000000
    28  H    0.000000   0.000000   0.000000   0.839284   0.000000   0.000000
    29  C    0.000000   0.000000   0.000000   0.000000   3.310830   0.000000
    30  C    0.000000   0.000000   0.000000   0.000000   0.000000   4.594619
    31  H    0.000000   0.000000   0.000000   0.000000   0.000000   0.000000
    32  H    0.000000   0.000000   0.000000   0.000000   0.000000   0.000000
    33  H    0.000000   0.000000   0.000000   0.000000   0.000000   0.000000
    34  O    0.000000   0.000000   0.000000   0.000000   0.000000   0.000000
    35  O    0.000000   0.000000   0.000000   0.000000   0.000000   0.000000
              31         32         33         34         35
     1  C    0.000000   0.000000   0.000000   0.000000   0.000000
     2  C    0.000000   0.000000   0.000000   0.000000   0.000000
     3  C    0.000000   0.000000   0.000000   0.000000   0.000000
     4  C    0.000000   0.000000   0.000000   0.000000   0.000000
     5  H    0.000000   0.000000   0.000000   0.000000   0.000000
     6  H    0.000000   0.000000   0.000000   0.000000   0.000000
     7  C    0.000000   0.000000   0.000000   0.000000   0.000000
     8  H    0.000000   0.000000   0.000000   0.000000   0.000000
     9  H    0.000000   0.000000   0.000000   0.000000   0.000000
    10  H    0.000000   0.000000   0.000000   0.000000   0.000000
    11  N    0.000000   0.000000   0.000000   0.000000   0.000000
    12  O    0.000000   0.000000   0.000000   0.000000   0.000000
    13  O    0.000000   0.000000   0.000000   0.000000   0.000000
    14  C    0.000000   0.000000   0.000000   0.000000   0.000000
    15  H    0.000000   0.000000   0.000000   0.000000   0.000000
    16  C    0.000000   0.000000   0.000000   0.000000   0.000000
    17  H    0.000000   0.000000   0.000000   0.000000   0.000000
    18  C    0.000000   0.000000   0.000000   0.000000   0.000000
    19  H    0.000000   0.000000   0.000000   0.000000   0.000000
    20  C    0.000000   0.000000   0.000000   0.000000   0.000000
    21  H    0.000000   0.000000   0.000000   0.000000   0.000000
    22  C    0.000000   0.000000   0.000000   0.000000   0.000000
    23  H    0.000000   0.000000   0.000000   0.000000   0.000000
    24  H    0.000000   0.000000   0.000000   0.000000   0.000000
    25  H    0.000000   0.000000   0.000000   0.000000   0.000000
    26  C    0.000000   0.000000   0.000000   0.000000   0.000000
    27  H    0.000000   0.000000   0.000000   0.000000   0.000000
    28  H    0.000000   0.000000   0.000000   0.000000   0.000000
    29  C    0.000000   0.000000   0.000000   0.000000   0.000000
    30  C    0.000000   0.000000   0.000000   0.000000   0.000000
    31  H    0.788452   0.000000   0.000000   0.000000   0.000000
    32  H    0.000000   0.788747   0.000000   0.000000   0.000000
    33  H    0.000000   0.000000   0.790630   0.000000   0.000000
    34  O    0.000000   0.000000   0.000000   6.551659   0.000000
    35  O    0.000000   0.000000   0.000000   0.000000   6.464842
 Mulliken charges:
               1
     1  C    0.598518
     2  C   -0.240169
     3  C   -0.225427
     4  C    0.600459
     5  H    0.184865
     6  H    0.183330
     7  C   -0.261128
     8  H    0.158845
     9  H    0.168300
    10  H    0.168394
    11  N   -0.464548
    12  O   -0.506592
    13  O   -0.514180
    14  C   -0.110516
    15  H    0.170021
    16  C   -0.015001
    17  H    0.144164
    18  C   -0.178543
    19  H    0.154335
    20  C   -0.160074
    21  H    0.154848
    22  C   -0.488156
    23  H    0.159738
    24  H    0.163704
    25  H    0.157510
    26  C   -0.019313
    27  H    0.145680
    28  H    0.160716
    29  C    0.689170
    30  C   -0.594619
    31  H    0.211548
    32  H    0.211253
    33  H    0.209370
    34  O   -0.551659
    35  O   -0.464842
 Sum of Mulliken charges =   0.00000
 Mulliken charges with hydrogens summed into heavy atoms:
               1
     1  C    0.598518
     2  C   -0.055304
     3  C   -0.042097
     4  C    0.600459
     7  C    0.234411
    11  N   -0.464548
    12  O   -0.506592
    13  O   -0.514180
    14  C    0.059505
    16  C    0.129164
    18  C   -0.024208
    20  C   -0.005226
    22  C   -0.007204
    26  C    0.287083
    29  C    0.689170
    30  C    0.037551
    34  O   -0.551659
    35  O   -0.464842
 Charge=              0.0000 electrons
 Dipole moment (field-independent basis, Debye):
    X=              2.3370    Y=              3.6264    Z=              0.2293  Tot=              4.3203
 N-N= 7.872161662382D+02 E-N=-1.444469954584D+03  KE=-6.390272784112D+01
 D1PCM: C-PCM CHGder 1st derivatives, ID1Alg=3 FixD1E=F DoIter=F DoCFld=F I1PDM=0.
 Calling FoFJK, ICntrl=      2127 FMM=F ISym2X=0 I1Cent= 0 IOpClX= 0 NMat=1 NMatS=1 NMatT=0.
 ***** Axes restored to original set *****
 -------------------------------------------------------------------
 Center     Atomic                   Forces (Hartrees/Bohr)
 Number     Number              X              Y              Z
 -------------------------------------------------------------------
      1        6          -0.000086558    0.000091985   -0.000073167
      2        6           0.000027127   -0.000156193    0.000109317
      3        6          -0.000046892   -0.000014879    0.000116546
      4        6           0.000100695   -0.000093220   -0.000091598
      5        1           0.000179980   -0.000060133   -0.000058035
      6        1           0.000095420    0.000199496   -0.000029016
      7        6          -0.000023906   -0.000023153    0.000040667
      8        1          -0.000001105    0.000000393    0.000022972
      9        1           0.000026537   -0.000177914    0.000010318
     10        1          -0.000174209    0.000050942    0.000004564
     11        7           0.000072804    0.000072314    0.000096507
     12        8           0.000022017    0.000075780    0.000040978
     13        8           0.000029166   -0.000015581    0.000016604
     14        6           0.000013577    0.000099110    0.000102509
     15        1          -0.000286212    0.000063706    0.000220925
     16        6           0.000077124    0.000092312    0.000066726
     17        1           0.000119078   -0.000056141    0.000104959
     18        6          -0.000089636   -0.000126991    0.000040240
     19        1          -0.000020125   -0.000112426   -0.000079437
     20        6          -0.000121541   -0.000139247   -0.000004858
     21        1           0.000004569   -0.000027287   -0.000177253
     22        6          -0.000051775    0.000142463   -0.000109814
     23        1           0.000101741   -0.000079516    0.000042705
     24        1           0.000072695   -0.000133053   -0.000069118
     25        1           0.000094416    0.000076893   -0.000067287
     26        6           0.000093773   -0.000041895   -0.000115551
     27        1          -0.000162536    0.000195093    0.000009399
     28        1           0.000122863   -0.000008793   -0.000095975
     29        6          -0.000010108    0.000027706    0.000025586
     30        6          -0.000102306    0.000006292    0.000002245
     31        1          -0.000050770    0.000065494    0.000017059
     32        1          -0.000025522    0.000063787    0.000016363
     33        1          -0.000071517   -0.000047932   -0.000038294
     34        8           0.000096497   -0.000095150   -0.000079907
     35        8          -0.000025361    0.000085740   -0.000017877
 -------------------------------------------------------------------
 Cartesian Forces:  Max     0.000286212 RMS     0.000091666

 GradGradGradGradGradGradGradGradGradGradGradGradGradGradGradGradGradGrad
 Berny optimization.
 FormGI is forming the generalized inverse of G from B-inverse, IUseBI=4.
 Internal  Forces:  Max     0.000566425 RMS     0.000121296
 Search for a local minimum.
 Step number   1 out of a maximum of  210
 All quantities printed in internal units (Hartrees-Bohrs-Radians)
 Mixed Optimization -- En-DIIS/RFO-DIIS
 Second derivative matrix not updated -- first step.
 ITU=  0
     Eigenvalues ---    0.00237   0.00298   0.00337   0.00595   0.00632
     Eigenvalues ---    0.00682   0.00713   0.00875   0.00969   0.00983
     Eigenvalues ---    0.01190   0.01207   0.01252   0.01384   0.01877
     Eigenvalues ---    0.01951   0.02877   0.03598   0.03861   0.04339
     Eigenvalues ---    0.04399   0.04765   0.04910   0.04919   0.05320
     Eigenvalues ---    0.05333   0.05467   0.05586   0.05770   0.05802
     Eigenvalues ---    0.06009   0.07033   0.07091   0.07271   0.07320
     Eigenvalues ---    0.07365   0.09705   0.11614   0.13693   0.14138
     Eigenvalues ---    0.14747   0.15999   0.15999   0.16000   0.16000
     Eigenvalues ---    0.16000   0.16000   0.16000   0.16000   0.16000
     Eigenvalues ---    0.16000   0.16000   0.17147   0.18102   0.19475
     Eigenvalues ---    0.22055   0.23567   0.24977   0.24990   0.24997
     Eigenvalues ---    0.24999   0.25000   0.25000   0.25445   0.25775
     Eigenvalues ---    0.27692   0.28116   0.28519   0.28841   0.29201
     Eigenvalues ---    0.30153   0.30876   0.31023   0.31171   0.31402
     Eigenvalues ---    0.31565   0.32223   0.33160   0.33170   0.33204
     Eigenvalues ---    0.33216   0.33286   0.33301   0.33386   0.33406
     Eigenvalues ---    0.33951   0.34142   0.34163   0.34903   0.34959
     Eigenvalues ---    0.34991   0.37646   0.38771   0.40929   0.49024
     Eigenvalues ---    0.55157   0.99642   1.00581   1.01052
 RFO step:  Lambda=-4.55786961D-05 EMin= 2.36779907D-03
 Linear search not attempted -- first point.
 Iteration  1 RMS(Cart)=  0.02482056 RMS(Int)=  0.00011420
 Iteration  2 RMS(Cart)=  0.00025627 RMS(Int)=  0.00000373
 Iteration  3 RMS(Cart)=  0.00000002 RMS(Int)=  0.00000373
 Variable       Old X    -DE/DX   Delta X   Delta X   Delta X     New X
                                 (Linear)    (Quad)   (Total)
    R1        2.89919   0.00007   0.00000   0.00021   0.00021   2.89940
    R2        2.69043   0.00013   0.00000   0.00041   0.00041   2.69084
    R3        2.28407  -0.00003   0.00000  -0.00003  -0.00003   2.28404
    R4        2.93445  -0.00036   0.00000  -0.00123  -0.00123   2.93322
    R5        2.11648   0.00001   0.00000   0.00003   0.00003   2.11650
    R6        2.92837   0.00001   0.00000   0.00016   0.00015   2.92852
    R7        2.90237  -0.00001   0.00000  -0.00009  -0.00009   2.90228
    R8        2.11952   0.00001   0.00000   0.00004   0.00004   2.11955
    R9        2.91541  -0.00036   0.00000  -0.00118  -0.00118   2.91423
   R10        2.69082   0.00012   0.00000   0.00038   0.00038   2.69120
   R11        2.28221  -0.00006   0.00000  -0.00006  -0.00006   2.28215
   R12        2.08694   0.00002   0.00000   0.00007   0.00007   2.08701
   R13        2.08754  -0.00008   0.00000  -0.00024  -0.00024   2.08729
   R14        2.08771  -0.00008   0.00000  -0.00023  -0.00023   2.08748
   R15        2.78989   0.00024   0.00000   0.00069   0.00069   2.79058
   R16        2.12949  -0.00011   0.00000  -0.00034  -0.00034   2.12915
   R17        2.84296  -0.00038   0.00000  -0.00131  -0.00131   2.84165
   R18        2.91018   0.00018   0.00000   0.00064   0.00064   2.91082
   R19        2.12669  -0.00009   0.00000  -0.00029  -0.00029   2.12640
   R20        2.84662  -0.00016   0.00000  -0.00063  -0.00063   2.84599
   R21        2.89585   0.00021   0.00000   0.00073   0.00073   2.89658
   R22        2.05833  -0.00012   0.00000  -0.00035  -0.00035   2.05798
   R23        2.52198  -0.00028   0.00000  -0.00060  -0.00060   2.52138
   R24        2.05741  -0.00013   0.00000  -0.00037  -0.00037   2.05704
   R25        2.07091  -0.00011   0.00000  -0.00034  -0.00034   2.07058
   R26        2.07414  -0.00013   0.00000  -0.00038  -0.00038   2.07375
   R27        2.08345   0.00008   0.00000   0.00024   0.00024   2.08369
   R28        2.08673  -0.00012   0.00000  -0.00035  -0.00035   2.08638
   R29        2.10437  -0.00002   0.00000  -0.00006  -0.00006   2.10432
   R30        2.74883  -0.00020   0.00000  -0.00054  -0.00054   2.74830
   R31        2.80356  -0.00020   0.00000  -0.00057  -0.00057   2.80299
   R32        2.28783   0.00009   0.00000   0.00009   0.00009   2.28792
   R33        2.60863  -0.00011   0.00000  -0.00023  -0.00023   2.60841
   R34        2.08552  -0.00004   0.00000  -0.00011  -0.00011   2.08541
   R35        2.08526  -0.00004   0.00000  -0.00011  -0.00011   2.08516
   R36        2.08379  -0.00006   0.00000  -0.00018  -0.00018   2.08361
    A1        1.88716  -0.00004   0.00000  -0.00016  -0.00017   1.88699
    A2        2.23749   0.00003   0.00000   0.00014   0.00014   2.23763
    A3        2.15848   0.00001   0.00000   0.00007   0.00007   2.15855
    A4        1.83914   0.00005   0.00000   0.00016   0.00016   1.83930
    A5        1.87977   0.00006   0.00000   0.00192   0.00191   1.88168
    A6        1.90494   0.00000   0.00000   0.00067   0.00068   1.90562
    A7        1.90222  -0.00009   0.00000  -0.00144  -0.00144   1.90078
    A8        2.03792  -0.00006   0.00000  -0.00149  -0.00151   2.03641
    A9        1.89392   0.00005   0.00000   0.00047   0.00047   1.89439
   A10        1.84279   0.00010   0.00000   0.00043   0.00043   1.84322
   A11        1.90049  -0.00005   0.00000  -0.00066  -0.00066   1.89984
   A12        2.03219  -0.00008   0.00000  -0.00178  -0.00179   2.03040
   A13        1.86791   0.00008   0.00000   0.00258   0.00258   1.87048
   A14        1.91066  -0.00005   0.00000   0.00021   0.00021   1.91087
   A15        1.90275   0.00001   0.00000  -0.00036  -0.00036   1.90239
   A16        1.88282  -0.00003   0.00000  -0.00008  -0.00009   1.88273
   A17        2.23959  -0.00002   0.00000  -0.00001  -0.00002   2.23958
   A18        2.16056   0.00005   0.00000   0.00026   0.00025   2.16081
   A19        1.89161  -0.00004   0.00000  -0.00009  -0.00009   1.89153
   A20        1.89092  -0.00003   0.00000  -0.00007  -0.00007   1.89085
   A21        1.93414  -0.00004   0.00000  -0.00007  -0.00007   1.93406
   A22        1.89688  -0.00020   0.00000  -0.00154  -0.00154   1.89534
   A23        1.92454   0.00015   0.00000   0.00086   0.00086   1.92540
   A24        1.92480   0.00015   0.00000   0.00085   0.00085   1.92564
   A25        1.97087  -0.00008   0.00000  -0.00016  -0.00016   1.97070
   A26        2.15696   0.00005   0.00000   0.00012   0.00012   2.15708
   A27        2.15483   0.00003   0.00000   0.00005   0.00005   2.15488
   A28        1.88457  -0.00005   0.00000   0.00023   0.00023   1.88480
   A29        1.94928   0.00016   0.00000  -0.00101  -0.00103   1.94825
   A30        1.91834  -0.00021   0.00000  -0.00121  -0.00121   1.91714
   A31        1.90656  -0.00019   0.00000  -0.00187  -0.00187   1.90469
   A32        1.87487   0.00029   0.00000   0.00427   0.00427   1.87914
   A33        1.92814   0.00000   0.00000  -0.00019  -0.00019   1.92796
   A34        1.87381   0.00003   0.00000   0.00093   0.00093   1.87474
   A35        1.95335   0.00000   0.00000  -0.00169  -0.00170   1.95165
   A36        1.94069  -0.00009   0.00000  -0.00039  -0.00039   1.94030
   A37        1.89785  -0.00009   0.00000  -0.00086  -0.00086   1.89699
   A38        1.87770   0.00009   0.00000   0.00176   0.00176   1.87946
   A39        1.91787   0.00006   0.00000   0.00039   0.00039   1.91826
   A40        2.01277   0.00006   0.00000   0.00104   0.00105   2.01381
   A41        2.13651  -0.00010   0.00000  -0.00196  -0.00197   2.13454
   A42        2.13378   0.00004   0.00000   0.00088   0.00089   2.13467
   A43        2.12884  -0.00003   0.00000  -0.00164  -0.00165   2.12719
   A44        2.01398  -0.00011   0.00000   0.00003   0.00004   2.01402
   A45        2.14027   0.00014   0.00000   0.00156   0.00157   2.14184
   A46        1.95282   0.00000   0.00000   0.00012   0.00012   1.95294
   A47        1.93743   0.00001   0.00000   0.00013   0.00013   1.93756
   A48        1.95119   0.00014   0.00000   0.00066   0.00066   1.95186
   A49        1.87089   0.00003   0.00000   0.00053   0.00053   1.87142
   A50        1.88071  -0.00009   0.00000  -0.00064  -0.00064   1.88007
   A51        1.86649  -0.00010   0.00000  -0.00087  -0.00087   1.86562
   A52        1.96212   0.00006   0.00000   0.00117   0.00117   1.96329
   A53        1.96356   0.00011   0.00000  -0.00025  -0.00025   1.96331
   A54        1.91406  -0.00016   0.00000  -0.00042  -0.00042   1.91364
   A55        1.93206  -0.00013   0.00000  -0.00152  -0.00152   1.93054
   A56        1.90493   0.00024   0.00000   0.00316   0.00315   1.90808
   A57        1.77770  -0.00012   0.00000  -0.00231  -0.00231   1.77539
   A58        2.26042   0.00015   0.00000   0.00060   0.00060   2.26102
   A59        1.90444  -0.00053   0.00000  -0.00213  -0.00213   1.90230
   A60        2.11830   0.00038   0.00000   0.00154   0.00154   2.11984
   A61        1.93725   0.00001   0.00000   0.00012   0.00012   1.93737
   A62        1.93799   0.00006   0.00000   0.00053   0.00053   1.93852
   A63        1.97187  -0.00013   0.00000  -0.00106  -0.00106   1.97081
   A64        1.86365   0.00005   0.00000   0.00078   0.00078   1.86443
   A65        1.87384   0.00001   0.00000  -0.00027  -0.00027   1.87358
   A66        1.87429   0.00002   0.00000  -0.00003  -0.00003   1.87425
   A67        2.06536   0.00057   0.00000   0.00227   0.00227   2.06762
    D1        0.02987   0.00004   0.00000   0.00287   0.00287   0.03274
    D2        2.05851  -0.00001   0.00000   0.00218   0.00219   2.06070
    D3       -2.17178   0.00008   0.00000   0.00418   0.00419  -2.16759
    D4       -3.10070  -0.00001   0.00000  -0.00319  -0.00319  -3.10389
    D5       -1.07206  -0.00006   0.00000  -0.00388  -0.00388  -1.07594
    D6        0.98084   0.00003   0.00000  -0.00188  -0.00187   0.97896
    D7        0.00808  -0.00005   0.00000  -0.00555  -0.00555   0.00253
    D8        3.11581  -0.00006   0.00000  -0.00540  -0.00540   3.11041
    D9        3.13927   0.00000   0.00000   0.00017   0.00017   3.13944
   D10       -0.03619  -0.00001   0.00000   0.00032   0.00033  -0.03587
   D11       -0.05338  -0.00002   0.00000   0.00047   0.00047  -0.05291
   D12        1.94719   0.00010   0.00000   0.00336   0.00336   1.95055
   D13       -2.17708   0.00001   0.00000   0.00101   0.00101  -2.17607
   D14       -2.06661  -0.00008   0.00000  -0.00115  -0.00115  -2.06776
   D15       -0.06604   0.00004   0.00000   0.00174   0.00174  -0.06430
   D16        2.09287  -0.00004   0.00000  -0.00061  -0.00061   2.09226
   D17        2.06383  -0.00002   0.00000   0.00052   0.00053   2.06435
   D18       -2.21878   0.00011   0.00000   0.00341   0.00341  -2.21537
   D19       -0.05987   0.00002   0.00000   0.00106   0.00106  -0.05881
   D20       -0.52304   0.00002   0.00000  -0.00761  -0.00761  -0.53065
   D21        1.55826  -0.00007   0.00000  -0.00906  -0.00906   1.54920
   D22       -2.57264  -0.00005   0.00000  -0.01008  -0.01008  -2.58271
   D23       -2.60526  -0.00001   0.00000  -0.00732  -0.00732  -2.61259
   D24       -0.52396  -0.00010   0.00000  -0.00878  -0.00878  -0.53274
   D25        1.62833  -0.00009   0.00000  -0.00979  -0.00979   1.61853
   D26        1.52091   0.00012   0.00000  -0.00468  -0.00468   1.51624
   D27       -2.68097   0.00003   0.00000  -0.00613  -0.00613  -2.68710
   D28       -0.52868   0.00005   0.00000  -0.00715  -0.00715  -0.53583
   D29        0.05943  -0.00001   0.00000  -0.00367  -0.00367   0.05577
   D30       -3.10368   0.00006   0.00000   0.00530   0.00530  -3.09838
   D31       -1.96352  -0.00003   0.00000  -0.00431  -0.00431  -1.96783
   D32        1.15656   0.00003   0.00000   0.00466   0.00466   1.16122
   D33        2.25985  -0.00007   0.00000  -0.00544  -0.00545   2.25441
   D34       -0.90326  -0.00001   0.00000   0.00353   0.00352  -0.89974
   D35        2.70952  -0.00006   0.00000   0.00454   0.00454   2.71406
   D36        0.61302   0.00011   0.00000   0.00732   0.00732   0.62034
   D37       -1.53347   0.00015   0.00000   0.00912   0.00911  -1.52436
   D38        0.62202  -0.00009   0.00000   0.00504   0.00504   0.62706
   D39       -1.47448   0.00007   0.00000   0.00782   0.00782  -1.46666
   D40        2.66221   0.00011   0.00000   0.00962   0.00962   2.67183
   D41       -1.41592  -0.00017   0.00000   0.00204   0.00203  -1.41389
   D42        2.77077  -0.00001   0.00000   0.00481   0.00481   2.77558
   D43        0.62427   0.00003   0.00000   0.00661   0.00661   0.63088
   D44       -0.04341   0.00004   0.00000   0.00588   0.00587  -0.03753
   D45        3.13201   0.00005   0.00000   0.00572   0.00572   3.13773
   D46        3.11850  -0.00002   0.00000  -0.00259  -0.00259   3.11591
   D47        0.01073  -0.00001   0.00000  -0.00274  -0.00275   0.00798
   D48       -1.55832   0.00000   0.00000  -0.00029  -0.00029  -1.55861
   D49        1.54587  -0.00001   0.00000  -0.00012  -0.00012   1.54575
   D50        0.53612   0.00003   0.00000   0.00012   0.00012   0.53624
   D51       -2.64287   0.00002   0.00000   0.00028   0.00028  -2.64259
   D52        2.63112  -0.00003   0.00000  -0.00071  -0.00070   2.63042
   D53       -0.54787  -0.00004   0.00000  -0.00054  -0.00054  -0.54841
   D54       -0.61621  -0.00011   0.00000  -0.00811  -0.00810  -0.62432
   D55        2.53963  -0.00003   0.00000  -0.00482  -0.00482   2.53481
   D56       -2.69976  -0.00003   0.00000  -0.00654  -0.00654  -2.70629
   D57        0.45608   0.00006   0.00000  -0.00325  -0.00325   0.45283
   D58        1.52469  -0.00027   0.00000  -0.01050  -0.01050   1.51419
   D59       -1.60265  -0.00018   0.00000  -0.00722  -0.00722  -1.60987
   D60       -0.89269   0.00007   0.00000  -0.01794  -0.01795  -0.91064
   D61        1.30275   0.00002   0.00000  -0.01925  -0.01926   1.28350
   D62       -3.01528  -0.00016   0.00000  -0.02246  -0.02246  -3.03775
   D63        1.15355   0.00006   0.00000  -0.01589  -0.01589   1.13766
   D64       -2.93419   0.00002   0.00000  -0.01720  -0.01720  -2.95139
   D65       -0.96904  -0.00017   0.00000  -0.02041  -0.02041  -0.98945
   D66       -3.05157   0.00001   0.00000  -0.01569  -0.01569  -3.06726
   D67       -0.85613  -0.00004   0.00000  -0.01700  -0.01700  -0.87312
   D68        1.10903  -0.00022   0.00000  -0.02021  -0.02021   1.08882
   D69       -2.56461   0.00002   0.00000   0.00650   0.00649  -2.55811
   D70        0.59364   0.00011   0.00000   0.00889   0.00889   0.60253
   D71       -0.49754   0.00000   0.00000   0.00607   0.00607  -0.49147
   D72        2.66071   0.00009   0.00000   0.00847   0.00846   2.66918
   D73        1.55346   0.00009   0.00000   0.00791   0.00791   1.56137
   D74       -1.57148   0.00018   0.00000   0.01031   0.01031  -1.56117
[...]
 00002564,0.00001797,-0.00000460,-0.00000110,-0.00002726,0.00000357,-0.
 00000883,-0.00000441,0.00000077,0.00000662,-0.00001121,-0.00019067,0.0
 0002407,0.00011612,-0.00008238,-0.00008033,0.00013304,-0.00012040,0.00
 004629,0.00005184,-0.00070927,0.00004402,-0.00035362,0.00007967,0.0000
 7290,-0.00017799,-0.00001681,-0.00001070,-0.00001196,0.00001618,-0.000
 00814,-0.00000931,-0.00002040,0.00007292,0.00011279,-0.00001823,-0.000
 00975,-0.00005834,0.00007650,-0.00013862,0.00003343,-0.00015757,0.0000
 6925,-0.00013297,-0.00007350,0.00010327,0.00009553,0.00001303,-0.00002
 067,-0.00000846,-0.00000119,-0.00002516,-0.00003641,0.00004744,-0.0000
 5477,-0.00003183,-0.00051207,-0.00062695,0.00434828,0.00049561,-0.0002
 3651,0.00030564,0.00020188,-0.00020741,0.00000855,-0.06605987,-0.01391
 613,-0.12144520,0.04315391,0.01791221,0.41227942,-0.00005902,0.0000373
 1,-0.00000943,0.00001776,-0.00000069,0.00001735,-0.00001272,-0.0000187
 9,0.00003053,-0.00009583,0.00004261,-0.00001508,-0.00000174,0.00000438
 ,-0.00000825,0.00000138,0.00000463,-0.00000618,0.00000731,-0.00000499,
 0.00000294,-0.00000334,0.00000039,-0.00000015,-0.00000556,0.00000026,-
 0.00000256,-0.00000431,-0.00000315,-0.00000267,0.00005812,-0.00002987,
 0.00000805,0.00004404,-0.00002096,0.00001831,0.00004465,-0.00001784,-0
 .00000005,-0.00005008,-0.00000539,-0.00007014,-0.00005131,0.00003840,-
 0.00002794,-0.00000625,-0.00001123,-0.00002742,-0.00000809,0.00000562,
 0.00000253,0.00001233,-0.00000076,-0.00000513,-0.00000536,0.00001125,0
 .00001457,0.00004639,-0.00002668,0.00002554,-0.00004696,0.00001900,-0.
 00001722,0.00001185,-0.00001569,0.00003145,-0.00000472,0.00000354,-0.0
 0000413,-0.00000332,0.00001051,-0.00000418,0.00000088,-0.00000064,-0.0
 0000905,-0.00048336,0.00047651,0.00072689,0.00010468,0.00001580,0.0000
 8099,-0.00009494,-0.00002101,-0.00008645,-0.00872513,0.01183691,-0.027
 17757,-0.03077772,0.00713212,-0.00848276,0.03951731,0.00006072,0.00005
 549,-0.00002384,-0.00002691,-0.00002360,-0.00001238,-0.00006560,-0.000
 04639,0.00002197,0.00002203,0.00016970,-0.00005886,0.00000615,0.000000
 29,0.00000747,0.00001673,0.00001036,0.00001311,0.00000363,-0.00000219,
 0.00000130,-0.00000246,0.00000252,-0.00000537,0.00000219,0.00000071,0.
 00000177,-0.00000170,0.00000828,0.00000064,-0.00002971,-0.00006860,0.0
 0002481,0.00001564,-0.00012031,0.00003476,-0.00004008,-0.00000904,0.00
 000904,-0.00001136,-0.00003104,-0.00001541,0.00001231,0.00006926,-0.00
 003263,0.00000717,0.00002316,0.00002522,0.00001147,-0.00000557,-0.0000
 0473,-0.00001907,0.00000453,0.00002706,0.00000824,-0.00000137,-0.00002
 158,-0.00004231,-0.00003913,0.00000172,0.00001471,0.00002968,-0.000020
 93,-0.00005879,0.00003357,-0.00001796,0.00000999,-0.00000575,0.0000070
 1,0.00000960,-0.00001315,0.00000065,0.00002384,-0.00001952,0.00000771,
 0.00040376,0.00035865,0.00029257,-0.00000033,0.00000118,0.00008776,-0.
 00007635,-0.00009533,-0.00003811,0.00791669,0.00710178,0.00609287,0.00
 766451,-0.11283855,0.09039069,-0.01057467,0.12910743,-0.00006463,0.000
 01112,0.00002770,0.00001863,0.00001073,-0.00000218,0.00005012,0.000019
 49,-0.00003914,-0.00009909,-0.00005980,0.00007416,-0.00000534,0.000000
 60,-0.00000155,-0.00002223,-0.00000116,-0.00000048,0.00000167,-0.00000
 707,-0.00000549,0.00000165,-0.00000019,0.00000964,-0.00000198,0.000002
 41,0.00000084,-0.00000011,-0.00000360,0.00000301,0.00006694,0.00000458
 ,-0.00003813,0.00002877,0.00004166,-0.00004192,0.00004868,-0.00001235,
 -0.00001725,-0.00002659,0.00002406,-0.00002061,-0.00002654,-0.00002539
 ,0.00003375,0.00000012,-0.00000731,-0.00000998,-0.00000903,0.00000482,
 0.00000465,0.00001484,-0.00002325,-0.00004222,0.00000152,0.00000416,0.
 00002746,0.00000084,0.00004956,-0.00001349,0.00002715,-0.00002639,0.00
 005142,0.00004310,-0.00004319,-0.00001371,-0.00000678,0.00000749,-0.00
 000133,-0.00000318,0.00001263,0.00000886,-0.00002107,0.00002354,0.0000
 0310,-0.00054104,-0.00029966,0.00008362,0.00002656,0.00001618,-0.00003
 881,0.00006786,0.00010961,0.00003977,-0.01902946,0.01167855,-0.0245522
 0,-0.00977751,0.08938991,-0.13317276,0.02050810,-0.11191355,0.16456106
 ,-0.00011968,0.00005143,0.00000626,0.00003398,0.00000836,0.00002365,0.
 00007675,0.00003529,-0.00002670,-0.00016740,-0.00003348,0.00004992,-0.
 00000676,0.00000619,-0.00001461,-0.00002062,-0.00000114,-0.00001952,0.
 00001124,-0.00001150,0.00000100,-0.00000229,0.00000078,0.00000500,-0.0
 0000802,0.00000216,-0.00000386,-0.00000515,-0.00000702,-0.00000253,0.0
 0011806,-0.00002091,-0.00001837,0.00006064,0.00002904,-0.00000982,0.00
 009029,-0.00003049,-0.00001030,0.00013591,-0.00002181,0.00007061,-0.00
 005854,-0.00001117,0.00001986,-0.00000374,-0.00001621,-0.00003483,-0.0
 0001571,0.00000982,0.00000522,0.00002164,-0.00001757,-0.00003795,-0.00
 000501,0.00001361,0.00003094,0.00003996,0.00001727,0.00002153,-0.00002
 367,-0.00000364,0.00000945,0.00004856,-0.00005839,0.00002727,-0.000010
 03,0.00001118,-0.00000833,-0.00000511,0.00002211,0.00000048,-0.0000179
 2,0.00002460,-0.00000921,-0.00030931,0.00037274,-0.00058985,-0.0000117
 2,0.00004170,-0.00007422,-0.00007026,0.00008967,-0.00005579,-0.0437771
 6,-0.00358886,0.00141944,-0.15640231,0.01219012,0.08337989,-0.00072139
 ,-0.00289620,0.00756844,0.20134154,0.00000578,0.00005449,-0.00001248,-
 0.00000873,-0.00001444,0.00000103,-0.00001228,-0.00001711,0.00000560,-
 0.00003311,0.00009027,-0.00001463,0.00000268,0.00000354,-0.00000069,0.
 00000384,0.00000612,0.00000107,0.00000531,-0.00000536,0.00000008,-0.00
 000168,0.00000191,-0.00000143,-0.00000016,0.00000153,0.00000038,-0.000
 00207,0.00000382,0.00000040,0.00001465,-0.00005088,0.00000737,0.000024
 50,-0.00006513,0.00001316,-0.00000085,-0.00001632,0.00000223,-0.000002
 90,-0.00002746,0.00001421,-0.00000869,0.00003048,-0.00001142,0.0000039
 7,0.00001302,0.00000428,0.00000288,-0.00000056,-0.00000146,-0.00000650
 ,-0.00000665,0.00000260,0.00000573,0.00000467,-0.00000276,-0.00001280,
 -0.00001815,0.00000806,0.00000340,0.00001709,-0.00000866,-0.00003193,-
 0.00000622,-0.00000365,0.00000557,0.00000030,0.00000183,0.00001005,-0.
 00000049,0.00000126,0.00001494,0.00000102,0.00000248,0.00018341,-0.000
 05060,0.00003271,-0.00000780,0.00001228,0.00000510,0.00001943,0.000003
 47,0.00000953,-0.00416669,0.00640125,0.00309575,0.01238994,-0.03321623
 ,-0.01013289,-0.00978062,0.00176877,0.01111852,-0.01340088,0.03189954,
 0.00006208,-0.00001690,0.00000417,-0.00001988,-0.00000543,-0.00002791,
 -0.00003962,-0.00002128,-0.00001569,0.00006711,0.00005237,-0.00001370,
 0.00000271,-0.00000548,0.00001660,0.00000447,0.00000847,0.00002827,-0.
 00000596,0.00000400,-0.00000271,0.00000092,-0.00000056,0.00000012,0.00
 000397,-0.00000054,0.00000372,0.00000239,0.00000431,0.00000363,-0.0000
 5215,-0.00000270,0.00000115,-0.00001956,-0.00003538,-0.00000806,-0.000
 04468,0.00001301,0.00000007,0.00008573,-0.00000813,-0.00000226,0.00002
 635,0.00002485,0.00000284,0.00000520,0.00001199,0.00002792,0.00000938,
 -0.00000601,-0.00000249,-0.00001194,0.00000912,0.00002291,0.00000294,-
 0.00000805,-0.00001759,-0.00003225,-0.00000439,-0.00002022,0.00002243,
 -0.00000037,0.00000063,-0.00002810,0.00004407,-0.00003410,0.00000355,-
 0.00000552,0.00001031,-0.00000075,-0.00001381,0.00000358,0.00000759,-0
 .00002270,0.00001318,0.00038811,0.00100686,-0.00011499,-0.00002580,0.0
 0001849,0.00012019,-0.00023714,-0.00011801,-0.00011190,-0.00880273,0.0
 0018229,0.01112657,0.08518356,-0.00950071,-0.08714544,0.01449959,0.004
 63146,-0.01432422,-0.09822570,0.01159575,0.10003148,-0.00009938,0.0000
 1191,0.00000550,0.00003121,0.00001384,0.00002751,0.00006807,0.00003722
 ,-0.00000119,-0.00009389,-0.00007523,0.00003033,-0.00000630,0.00000524
 ,-0.00001550,-0.00001049,-0.00000915,-0.00002320,0.00000645,-0.0000055
 5,0.00000195,-0.00000157,-0.00000009,0.00000288,-0.00000655,0.00000061
 ,-0.00000387,-0.00000328,-0.00000682,-0.00000337,0.00007699,0.00001173
 ,-0.00000957,0.00002691,0.00005452,-0.00000245,0.00007194,-0.00001620,
 -0.00000615,0.00001793,0.00000871,0.00004529,-0.00001071,-0.00003685,-
 0.00000360,-0.00000796,-0.00002467,-0.00004073,-0.00001520,0.00000973,
 0.00000547,0.00002481,-0.00000797,-0.00002716,-0.00000902,0.00001263,0
 .00002961,0.00007368,0.00001325,0.00001690,-0.00003994,-0.00000633,0.0
 0000135,0.00005183,-0.00005352,0.00004006,-0.00001009,0.00000956,-0.00
 000988,-0.00000654,0.00002224,-0.00000313,-0.00001712,0.00002326,-0.00
 001465,-0.00041719,-0.00014529,-0.00010929,0.00008754,-0.00004960,-0.0
 0004727,0.00008343,0.00009580,0.00002413,-0.00473142,-0.02443303,-0.01
 621236,-0.03380085,0.00337573,0.00130544,0.00372824,0.00085231,-0.0000
 5599,-0.00217690,0.01511501,0.00951693,0.04108171,-0.00009356,0.000105
 48,0.00000007,0.00001695,-0.00000983,0.00001795,0.00006390,0.00001948,
 -0.00002740,-0.00017359,0.00002777,0.00005042,-0.00000319,0.00001019,-
 0.00001219,-0.00001913,0.00000075,-0.00001792,0.00001462,-0.00001675,-
 0.00000115,-0.00000230,0.00000312,0.00000442,-0.00000504,0.00000454,-0
 .00000198,-0.00000504,-0.00000152,-0.00000047,0.00011531,-0.00006615,-
 0.00001894,0.00006656,-0.00002098,-0.00000504,0.00007366,-0.00004584,-
 0.00001120,0.00001378,-0.00002662,0.00005328,-0.00005763,-0.00000367,0
 .00001067,0.00000275,0.00000982,-0.00002273,-0.00000990,0.00000831,0.0
 0000336,0.00000524,-0.00004000,-0.00004960,0.00001176,0.00002313,0.000
 03269,0.00000331,-0.00000260,0.00002831,0.00000379,0.00002051,0.000011
 95,-0.00000360,-0.00008683,-0.00000589,0.00000053,0.00001228,-0.000002
 25,0.00001967,0.00002240,0.00001197,0.00000359,0.00003993,0.00000504,-
 0.00036180,-0.00082095,-0.00034784,-0.00003607,0.00003070,-0.00013215,
 0.00020001,0.00018792,0.00011764,-0.01459354,-0.00831784,-0.01416504,0
 .00012170,-0.18587221,-0.06788489,0.00173262,-0.02256606,0.00046612,0.
 00601445,-0.00506998,-0.00712380,0.00469400,0.22236489,-0.00006056,0.0
 0001789,0.00002596,0.00001442,0.00000919,-0.00000540,0.00006275,0.0000
 3177,-0.00005092,-0.00008257,-0.00006177,0.00007028,-0.00000614,0.0000
 0011,-0.00000042,-0.00002309,-0.00000609,-0.00000259,0.00000292,-0.000
 00768,-0.00000449,0.00000126,0.00000061,0.00000818,-0.00000173,0.00000
 265,0.00000060,-0.00000027,-0.00000279,0.00000222,0.00006212,0.0000026
 1,-0.00003529,0.00002104,0.00004081,-0.00003364,0.00004617,-0.00001438
 ,-0.00001706,0.00001421,0.00002057,0.00002804,0.00000264,-0.00003738,0
 .00002931,0.00000285,-0.00000306,-0.00000358,-0.00000768,0.00000483,0.
 00000412,0.00000932,-0.00002690,-0.00004504,0.00000588,0.00000649,0.00
 002693,-0.00001352,0.00004404,-0.00001464,0.00003877,-0.00001678,0.000
 04709,0.00004229,-0.00004984,-0.00002791,-0.00000646,0.00000859,0.0000
 0022,-0.00000070,0.00001338,0.00001355,-0.00002424,0.00002797,0.000008
 13,-0.00042676,-0.00045603,-0.00026313,0.00001765,-0.00002625,-0.00006
 844,0.00011517,0.00012773,0.00008636,-0.01188064,-0.01991650,-0.011435
 55,-0.00008785,-0.06601964,-0.06290992,-0.00073461,0.01234949,0.005881
 47,0.00652114,-0.01411087,-0.00572812,0.00774442,0.08777578,0.07515682
 ,0.00048392,-0.00044950,-0.00001905,-0.00014959,0.00003513,-0.00007423
 ,-0.00010175,0.00013635,0.00004805,0.00118359,-0.00019172,-0.00028566,
 0.00000892,-0.00003525,0.00005955,0.00015849,-0.00009650,0.00007376,-0
 .00006784,0.00007450,0.00000794,0.00000828,-0.00000729,-0.00003253,0.0
 0002879,-0.00001876,0.00001122,0.00002538,0.00002278,-0.00000072,-0.00
 064243,0.00031816,0.00011609,-0.00044817,0.00007267,0.00010279,-0.0003
 8477,0.00019963,0.00005757,-0.00123769,0.00081683,0.00044357,0.0010600
 5,-0.00056562,-0.00052207,-0.00002951,-0.00003011,0.00007039,0.0000489
 7,-0.00002841,-0.00001512,-0.00004049,0.00012301,0.00024677,-0.0000298
 5,-0.00005347,-0.00011245,0.00006521,0.00004893,-0.00016879,-0.0000844
 1,0.00000291,-0.00008450,-0.00004612,0.00021271,-0.00003263,0.00001390
 ,-0.00003807,0.00001698,-0.00001792,-0.00006311,-0.00002042,0.00001160
 ,-0.00008558,0.00000482,-0.00303798,0.00113201,-0.00000099,0.00008089,
 -0.00110073,-0.00025165,0.00108900,-0.00012015,0.00081284,-0.10316454,
 -0.13822168,-0.08971161,-0.01370956,-0.02750058,-0.03076298,-0.0005780
 8,-0.00143379,0.00060993,0.00174374,-0.00006622,-0.00026611,-0.0028523
 6,0.00120662,-0.00147347,0.10583670,-0.00044473,-0.00072894,0.00017481
 ,0.00023010,0.00026130,0.00017800,0.00046703,0.00050808,-0.00005814,0.
 00039186,-0.00189113,0.00031113,-0.00005114,-0.00000587,-0.00009481,-0
 .00005121,-0.00018749,-0.00019946,-0.00004726,0.00005184,0.00000699,0.
 00002343,-0.00001732,0.00001564,-0.00001128,-0.00001499,-0.00002502,0.
 00002407,-0.00006618,-0.00002803,-0.00002157,0.00083091,-0.00011671,-0
 .00041246,0.00124745,-0.00010530,0.00024258,0.00015753,-0.00003983,0.0
 0013678,0.00077989,-0.00033058,0.00080296,-0.00116967,-0.00011066,-0.0
 0013648,-0.00027412,-0.00034393,-0.00011125,0.00006505,0.00004488,0.00
 021657,-0.00007869,-0.00024141,-0.00006893,0.00004805,0.00025593,0.000
 43484,0.00052634,0.00001976,-0.00017381,-0.00021451,0.00023921,0.00059
 419,-0.00036890,0.00024788,-0.00009172,0.00004715,-0.00008476,-0.00006
 983,0.00015441,-0.00000102,-0.00026599,0.00022615,-0.00010540,-0.00772
 793,-0.00562214,-0.00422445,0.00041679,-0.00073253,-0.00045759,0.00019
 843,0.00125360,0.00002412,-0.16477016,-0.47703598,-0.28651845,-0.02157
 621,-0.00923149,-0.02484900,-0.00005657,-0.00257318,0.00025425,0.00191
 358,-0.00141261,-0.00068153,-0.00045097,0.00091275,-0.00012793,0.14427
 887,0.60029851,-0.00019645,-0.00025333,-0.00000244,0.00011367,0.000102
 53,0.00016322,0.00024482,0.00022094,0.00012718,0.00013927,-0.00064019,
 -0.00002898,-0.00001059,0.00000461,-0.00008244,0.00011122,-0.00011047,
 -0.00021932,-0.00000665,0.00002077,0.00001448,0.00000389,-0.00000317,-
 0.00000953,-0.00000965,-0.00000874,-0.00002005,0.00000255,-0.00002694,
 -0.00002605,0.00000641,0.00029116,0.00002853,-0.00010702,0.00040954,0.
 00010806,0.00010741,0.00005228,0.00001573,0.00080214,0.00010257,0.0002
 5701,0.00002192,-0.00018138,-0.00022971,-0.00008003,-0.00013379,-0.000
 20063,-0.00004997,0.00003130,0.00001666,0.00010770,-0.00002410,-0.0000
 7554,-0.00002663,0.00003802,0.00010688,0.00013122,0.00013844,0.0001591
 4,-0.00016048,-0.00001714,0.00006390,0.00022540,-0.00013179,0.00021737
 ,-0.00003522,0.00000902,-0.00005423,-0.00003084,0.00006490,-0.00002404
 ,-0.00008468,0.00006892,-0.00008805,-0.00423920,-0.00074228,-0.0030049
 5,0.00061730,-0.00127911,-0.00120402,0.00084010,0.00045566,0.00039031,
 -0.10108279,-0.27154170,-0.24024518,-0.02813517,-0.02830221,-0.0117525
 2,0.00140468,-0.00114710,0.00147376,0.00044018,-0.00122281,-0.00202686
 ,-0.00221951,0.00088211,-0.00036964,0.11368115,0.34570183,0.24643459,0
 .00198571,-0.00014821,-0.00033633,-0.00050247,-0.00040461,-0.00057594,
 -0.00448867,-0.00314158,0.00259398,0.00134060,0.00340561,-0.00193693,0
 .00011619,-0.00011942,0.00035455,0.00040458,0.00037036,0.00098901,-0.0
 0012724,0.00017186,0.00003695,-0.00003057,-0.00000651,-0.00011380,0.00
 007941,-0.00004223,0.00007477,0.00002439,0.00015759,0.00004259,-0.0016
 8212,-0.00072896,0.00065497,-0.00010441,-0.00221164,0.00053075,-0.0014
 2170,0.00032420,0.00023105,-0.04431446,-0.01212309,-0.00427602,-0.0002
 8124,0.00219398,-0.00071416,0.00010471,0.00019965,0.00067897,0.0002884
 1,-0.00014579,-0.00009543,-0.00043585,0.00056219,0.00085677,-0.0000266
 3,-0.00026137,-0.00064059,-0.00149162,-0.00096401,0.00015729,-0.000134
 12,0.00036543,-0.00047710,-0.00059722,0.00110569,-0.00041822,0.0001415
 0,-0.00018288,0.00013261,-0.00000233,-0.00036033,-0.00004124,0.0003982
 7,-0.00074188,0.00014222,-0.14657918,-0.02105562,-0.08101592,-0.013746
 70,-0.00291049,-0.01494799,-0.02179428,0.01360053,-0.01426761,-0.11398
 173,0.06757487,-0.01161861,-0.04750799,0.02449360,-0.02182588,-0.00185
 573,-0.00178250,0.00060561,0.00021651,-0.00026731,-0.00208303,-0.00111
 389,0.00097957,0.00010520,0.01477640,0.04616946,0.01747558,0.38234252,
 -0.00062348,-0.00051925,0.00021212,0.00021083,0.00019923,0.00012530,-0
 .00063042,0.00023802,0.00006603,-0.00000942,-0.00163577,0.00033688,-0.
 00008966,0.00000355,-0.00012125,-0.00015245,-0.00026312,-0.00016643,-0
 .00002528,0.00002037,0.00000664,0.00001815,-0.00001203,0.00003419,-0.0
 0002294,-0.00000503,-0.00002418,0.00001337,-0.00006396,-0.00002276,0.0
 0021656,0.00068767,-0.00017756,-0.00022097,0.00113862,-0.00016569,0.00
 040520,0.00007149,-0.00007684,-0.01149446,0.00227947,-0.00188129,0.000
 74402,-0.00105128,-0.00008452,-0.00007702,-0.00027580,-0.00024502,-0.0
 0012696,0.00007609,0.00005139,0.00014370,-0.00004599,-0.00035981,-0.00
 007001,0.00003692,0.00027021,0.00037452,0.00075045,-0.00014627,0.00001
 128,-0.00036667,0.00024215,0.00084743,-0.00076054,0.00012283,-0.000102
 75,0.00009362,-0.00012388,-0.00005631,0.00020517,0.00002960,-0.0004554
 1,0.00051935,-0.00010013,-0.02008512,-0.05810020,-0.01935372,-0.010065
 77,0.00099556,-0.01099383,0.02904722,-0.00493196,0.01740601,0.08585791
 ,-0.17378379,-0.00928057,0.01963298,0.00492998,0.00954391,-0.00078237,
 -0.00028637,-0.00082704,-0.00073485,-0.00033532,-0.00002570,0.00095397
 ,-0.00083590,0.00039923,0.02142498,-0.10574359,-0.04282964,-0.11407660
 ,0.33676863,0.00023621,-0.00004455,-0.00009210,-0.00006545,0.00001560,
 0.00011251,0.00143951,0.00055070,0.00042957,0.00042793,0.00032094,-0.0
 0005493,0.00004307,0.00000478,0.00000071,0.00025169,0.00009340,-0.0000
 7962,-0.00002106,0.00003291,0.00000071,-0.00000287,-0.00000014,-0.0000
 2866,0.00000744,-0.00001055,0.00000242,0.00000245,0.00001835,-0.000003
 97,-0.00027301,-0.00006504,0.00011400,-0.00007979,-0.00032014,0.000115
 41,-0.00018765,0.00005377,0.00006248,0.00104178,-0.00268765,0.00842458
 ,-0.00046497,0.00015490,-0.00000816,-0.00011509,-0.00010785,-0.0000905
 5,0.00001575,-0.00000392,-0.00000688,0.00006604,0.00009908,0.00017584,
 -0.00000333,0.00003581,-0.00002991,0.00108420,-0.00064751,-0.00059992,
 -0.00030945,0.00011005,-0.00013045,-0.00004402,0.00012849,0.00020858,0
 .00002086,-0.00004305,-0.00001772,0.00000114,-0.00002188,-0.00005335,0
 .00017627,-0.00019771,-0.00010300,-0.07140764,-0.02248533,-0.09278148,
 -0.02974411,-0.00423548,-0.02363596,-0.01066618,0.00848287,-0.00302281
 ,-0.00414819,-0.01986185,-0.04911998,-0.02334739,0.01195811,-0.0001310
 8,-0.00068078,-0.00071649,0.00005130,-0.00045874,-0.00039973,-0.001821
 10,0.00001101,0.00035886,-0.00037348,0.00747098,-0.02873032,0.01008700
 ,0.12972275,0.05816039,0.15239902\\-0.00000367,-0.00000120,-0.00001210
 ,0.00000002,-0.00000480,0.00000630,-0.00000145,0.00000086,-0.00000338,
 -0.00000139,0.00000047,0.00000626,-0.00000205,0.00000010,-0.00000034,0
 .00000146,0.00000044,-0.00000351,0.00000025,-0.00000063,0.00000187,0.0
 0000086,-0.00000143,-0.00000216,0.00000114,0.00000083,0.00000128,0.000
 00022,0.00000066,-0.00000066,0.00000075,0.00000034,0.00000077,0.000000
 57,0.00000121,-0.00000237,0.00000248,0.00000027,0.00000483,-0.00000434
 ,-0.00000388,0.00000073,0.00000060,-0.00000206,0.00000047,-0.00000057,
 0.00000283,0.00000116,0.00000047,-0.00000118,-0.00000079,-0.00000462,0
 .00000076,0.00000342,0.00000109,0.00000094,0.00000267,0.00000422,-0.00
 000219,-0.00000004,0.00000120,0.,0.00000251,-0.00000099,0.00000386,-0.
 00000187,0.00000047,0.00000049,0.00000410,0.00000072,-0.00000207,-0.00
 000082,-0.00000001,0.00000099,0.,0.00000157,0.00000764,-0.00000775,-0.
 00000150,-0.00000248,0.00000204,0.00000105,-0.00000153,0.00000091,0.00
 001165,0.00000303,-0.00001359,-0.00000191,-0.00000242,0.00000719,0.000
 00250,-0.00000127,-0.00000040,0.00000118,0.00000259,-0.00000314,-0.000
 00016,-0.00000112,-0.00000009,-0.00000586,-0.00000471,0.00000324,-0.00
 000592,0.00000465,0.00000326\\\@


 IT WAS AN ACT OF DESPARATION. FOR SIX YEARS I HAD STRUGGLED WITH THE
 BLACKBODY THEORY. I KNEW THE PROBLEM WAS FUNDAMENTAL, AND I KNEW
 THE ANSWER. I HAD TO FIND A THEORETICAL EXPLANATION AT ANY COST,
 EXCEPT FOR THE INVIOLABLITY OF THE TWO LAWS OF THERMODYNAMICS.
   -- MAX PLANCK, 1931
 Job cpu time:       0 days  0 hours  0 minutes 43.4 seconds.
 File lengths (MBytes):  RWF=    171 Int=      0 D2E=      0 Chk=     13 Scr=      1
 Normal termination of Gaussian 09 at Thu Jul 23 01:56:06 2020.
