 Entering Gaussian System, Link 0=g09
 Input=diene_pm6_cpcmtoluene.com
 Output=diene_pm6_cpcmtoluene.log
 Initial command:
 /apps/applications/gaussian/G09.D01/2/default/g09/l1.exe "/local/644144.1.40core-192G.q/Gau-39150.inp" -scrdir="/local/644144.1.40core-192G.q/"
 Entering Link 1 = /apps/applications/gaussian/G09.D01/2/default/g09/l1.exe PID=     39151.
  
 Copyright (c) 1988,1990,1992,1993,1995,1998,2003,2009,2013,
            Gaussian, Inc.  All Rights Reserved.
  
 This is part of the Gaussian(R) 09 program.  It is based on
 the Gaussian(R) 03 system (copyright 2003, Gaussian, Inc.),
 the Gaussian(R) 98 system (copyright 1998, Gaussian, Inc.),
 the Gaussian(R) 94 system (copyright 1995, Gaussian, Inc.),
 the Gaussian 92(TM) system (copyright 1992, Gaussian, Inc.),
 the Gaussian 90(TM) system (copyright 1990, Gaussian, Inc.),
 the Gaussian 88(TM) system (copyright 1988, Gaussian, Inc.),
 the Gaussian 86(TM) system (copyright 1986, Carnegie Mellon
 University), and the Gaussian 82(TM) system (copyright 1983,
 Carnegie Mellon University). Gaussian is a federally registered
 trademark of Gaussian, Inc.
  
 This software contains proprietary and confidential information,
 including trade secrets, belonging to Gaussian, Inc.
  
 This software is provided under written license and may be
 used, copied, transmitted, or stored only in accord with that
 written license.
  
 The following legend is applicable only to US Government
 contracts under FAR:
  
                    RESTRICTED RIGHTS LEGEND
  
 Use, reproduction and disclosure by the US Government is
 subject to restrictions as set forth in subparagraphs (a)
 and (c) of the Commercial Computer Software - Restricted
 Rights clause in FAR 52.227-19.
  
 Gaussian, Inc.
 340 Quinnipiac St., Bldg. 40, Wallingford CT 06492
  
  
 ---------------------------------------------------------------
 Warning -- This program may not be used in any manner that
 competes with the business of Gaussian, Inc. or will provide
 assistance to any competitor of Gaussian, Inc.  The licensee
 of this program is prohibited from giving any competitor of
 Gaussian, Inc. access to this program.  By using this program,
 the user acknowledges that Gaussian, Inc. is engaged in the
 business of creating and licensing software in the field of
 computational chemistry and represents and warrants to the
 licensee that it is not a competitor of Gaussian, Inc. and that
 it will not use this program in any manner prohibited above.
 ---------------------------------------------------------------
  

 Cite this work as:
 Gaussian 09, Revision D.01,
 M. J. Frisch, G. W. Trucks, H. B. Schlegel, G. E. Scuseria, 
 M. A. Robb, J. R. Cheeseman, G. Scalmani, V. Barone, B. Mennucci, 
 G. A. Petersson, H. Nakatsuji, M. Caricato, X. Li, H. P. Hratchian, 
 A. F. Izmaylov, J. Bloino, G. Zheng, J. L. Sonnenberg, M. Hada, 
 M. Ehara, K. Toyota, R. Fukuda, J. Hasegawa, M. Ishida, T. Nakajima, 
 Y. Honda, O. Kitao, H. Nakai, T. Vreven, J. A. Montgomery, Jr., 
 J. E. Peralta, F. Ogliaro, M. Bearpark, J. J. Heyd, E. Brothers, 
 K. N. Kudin, V. N. Staroverov, T. Keith, R. Kobayashi, J. Normand, 
 K. Raghavachari, A. Rendell, J. C. Burant, S. S. Iyengar, J. Tomasi, 
 M. Cossi, N. Rega, J. M. Millam, M. Klene, J. E. Knox, J. B. Cross, 
 V. Bakken, C. Adamo, J. Jaramillo, R. Gomperts, R. E. Stratmann, 
 O. Yazyev, A. J. Austin, R. Cammi, C. Pomelli, J. W. Ochterski, 
 R. L. Martin, K. Morokuma, V. G. Zakrzewski, G. A. Voth, 
 P. Salvador, J. J. Dannenberg, S. Dapprich, A. D. Daniels, 
 O. Farkas, J. B. Foresman, J. V. Ortiz, J. Cioslowski, 
 and D. J. Fox, Gaussian, Inc., Wallingford CT, 2013.
 
 ******************************************
 Gaussian 09:  ES64L-G09RevD.01 24-Apr-2013
                22-Jul-2020 
 ******************************************
 %nprocshared=4
 Will use up to    4 processors via shared memory.
 %chk=diene_cpcmtoluene.chk
 ----------------------------------------------------------------------
 # opt freq pm6 scrf=(cpcm,solvent=toluene) geom=connectivity empirical
 dispersion=gd3
 ----------------------------------------------------------------------
 1/14=-1,18=20,19=15,26=1,38=1,57=2/1,3;
 2/9=110,12=2,17=6,18=5,40=1/2;
 3/5=2,16=1,25=1,41=3900000,70=2101,71=1,72=13,124=31/1,2,3;
 4/35=1/1;
 5/5=2,35=1,38=5,53=13/2;
 6/7=2,8=2,9=2,10=2,28=1/1;
 7//1,2,3,16;
 1/14=-1,18=20,19=15,26=1/3(2);
 2/9=110/2;
 99//99;
 2/9=110/2;
 3/5=2,16=1,25=1,41=3900000,70=2105,71=1,72=13,124=31,135=20/1,2,3;
 4/5=5,16=3,35=1/1;
 5/5=2,35=1,38=5,53=13/2;
 7//1,2,3,16;
 1/14=-1,18=20,19=15,26=1/3(-5);
 2/9=110/2;
 6/7=2,8=2,9=2,10=2,19=2,28=1/1;
 99/9=1/99;
 -------------------
 Title Card Required
 -------------------
 Symbolic Z-matrix:
 Charge =  0 Multiplicity = 1
 C                    -1.62107   0.31242  -0.47029 
 H                    -2.61432   0.41337  -0.85521 
 C                    -0.97707   1.4718    0.31245 
 H                    -1.52287   2.3783    0.47139 
 C                    -0.9298   -0.83571  -0.67159 
 H                     0.06345  -0.93666  -0.28667 
 C                    -1.5738   -1.9951   -1.45433 
 H                    -1.18311  -2.92571  -1.09907 
 H                    -2.63413  -1.97588  -1.31213 
 H                    -1.35161  -1.88925  -2.49564 
 C                     0.28092   1.34394   0.79997 
 H                     0.82671   0.43744   0.64104 
 C                     0.92492   2.50333   1.58272 
 H                     1.98525   2.48411   1.44052 
 H                     0.70273   2.39747   2.62403 
 C                     1.00078   4.82362   1.83477 
 C                     1.45139   4.6122    3.29211 
 H                     1.73707   3.59064   3.43247 
 H                     2.28561   5.24809   3.50331 
 H                     0.64457   4.85097   3.95311 
 O                     0.40278   3.74705   1.10793 
 O                     1.1588    5.94377   1.28352 
 

 GradGradGradGradGradGradGradGradGradGradGradGradGradGradGradGradGradGrad
 Berny optimization.
 Initialization pass.
                           ----------------------------
                           !    Initial Parameters    !
                           ! (Angstroms and Degrees)  !
 --------------------------                            --------------------------
 ! Name  Definition              Value          Derivative Info.                !
 --------------------------------------------------------------------------------
 ! R1    R(1,2)                  1.07           estimate D2E/DX2                !
 ! R2    R(1,3)                  1.54           estimate D2E/DX2                !
 ! R3    R(1,5)                  1.3552         estimate D2E/DX2                !
 ! R4    R(3,4)                  1.07           estimate D2E/DX2                !
 ! R5    R(3,11)                 1.3552         estimate D2E/DX2                !
 ! R6    R(5,6)                  1.07           estimate D2E/DX2                !
 ! R7    R(5,7)                  1.54           estimate D2E/DX2                !
 ! R8    R(7,8)                  1.07           estimate D2E/DX2                !
 ! R9    R(7,9)                  1.07           estimate D2E/DX2                !
 ! R10   R(7,10)                 1.07           estimate D2E/DX2                !
 ! R11   R(11,12)                1.07           estimate D2E/DX2                !
 ! R12   R(11,13)                1.54           estimate D2E/DX2                !
 ! R13   R(13,14)                1.07           estimate D2E/DX2                !
 ! R14   R(13,15)                1.07           estimate D2E/DX2                !
 ! R15   R(13,21)                1.43           estimate D2E/DX2                !
 ! R16   R(16,17)                1.54           estimate D2E/DX2                !
 ! R17   R(16,21)                1.43           estimate D2E/DX2                !
 ! R18   R(16,22)                1.2584         estimate D2E/DX2                !
 ! R19   R(17,18)                1.07           estimate D2E/DX2                !
 ! R20   R(17,19)                1.07           estimate D2E/DX2                !
 ! R21   R(17,20)                1.07           estimate D2E/DX2                !
 ! A1    A(2,1,3)              120.0            estimate D2E/DX2                !
 ! A2    A(2,1,5)              120.0            estimate D2E/DX2                !
 ! A3    A(3,1,5)              120.0            estimate D2E/DX2                !
 ! A4    A(1,3,4)              120.0            estimate D2E/DX2                !
 ! A5    A(1,3,11)             120.0            estimate D2E/DX2                !
 ! A6    A(4,3,11)             120.0            estimate D2E/DX2                !
 ! A7    A(1,5,6)              120.0            estimate D2E/DX2                !
 ! A8    A(1,5,7)              120.0            estimate D2E/DX2                !
 ! A9    A(6,5,7)              120.0            estimate D2E/DX2                !
 ! A10   A(5,7,8)              109.4712         estimate D2E/DX2                !
 ! A11   A(5,7,9)              109.4712         estimate D2E/DX2                !
 ! A12   A(5,7,10)             109.4712         estimate D2E/DX2                !
 ! A13   A(8,7,9)              109.4712         estimate D2E/DX2                !
 ! A14   A(8,7,10)             109.4712         estimate D2E/DX2                !
 ! A15   A(9,7,10)             109.4712         estimate D2E/DX2                !
 ! A16   A(3,11,12)            120.0            estimate D2E/DX2                !
 ! A17   A(3,11,13)            120.0            estimate D2E/DX2                !
 ! A18   A(12,11,13)           120.0            estimate D2E/DX2                !
 ! A19   A(11,13,14)           109.4712         estimate D2E/DX2                !
 ! A20   A(11,13,15)           109.4712         estimate D2E/DX2                !
 ! A21   A(11,13,21)           109.4712         estimate D2E/DX2                !
 ! A22   A(14,13,15)           109.4712         estimate D2E/DX2                !
 ! A23   A(14,13,21)           109.4712         estimate D2E/DX2                !
 ! A24   A(15,13,21)           109.4712         estimate D2E/DX2                !
 ! A25   A(17,16,21)           120.0            estimate D2E/DX2                !
 ! A26   A(17,16,22)           120.0            estimate D2E/DX2                !
 ! A27   A(21,16,22)           120.0            estimate D2E/DX2                !
 ! A28   A(16,17,18)           109.4712         estimate D2E/DX2                !
 ! A29   A(16,17,19)           109.4712         estimate D2E/DX2                !
 ! A30   A(16,17,20)           109.4712         estimate D2E/DX2                !
 ! A31   A(18,17,19)           109.4712         estimate D2E/DX2                !
 ! A32   A(18,17,20)           109.4712         estimate D2E/DX2                !
 ! A33   A(19,17,20)           109.4712         estimate D2E/DX2                !
 ! A34   A(13,21,16)           109.4712         estimate D2E/DX2                !
 ! D1    D(2,1,3,4)              0.0            estimate D2E/DX2                !
 ! D2    D(2,1,3,11)           179.9999         estimate D2E/DX2                !
 ! D3    D(5,1,3,4)           -180.0            estimate D2E/DX2                !
 ! D4    D(5,1,3,11)             0.0            estimate D2E/DX2                !
 ! D5    D(2,1,5,6)            179.9998         estimate D2E/DX2                !
 ! D6    D(2,1,5,7)             -0.0002         estimate D2E/DX2                !
 ! D7    D(3,1,5,6)             -0.0002         estimate D2E/DX2                !
 ! D8    D(3,1,5,7)            179.9998         estimate D2E/DX2                !
 ! D9    D(1,3,11,12)            0.0001         estimate D2E/DX2                !
 ! D10   D(1,3,11,13)         -179.9999         estimate D2E/DX2                !
 ! D11   D(4,3,11,12)          180.0            estimate D2E/DX2                !
 ! D12   D(4,3,11,13)            0.0            estimate D2E/DX2                !
 ! D13   D(1,5,7,8)           -150.0            estimate D2E/DX2                !
 ! D14   D(1,5,7,9)            -30.0            estimate D2E/DX2                !
 ! D15   D(1,5,7,10)            90.0            estimate D2E/DX2                !
 ! D16   D(6,5,7,8)             30.0            estimate D2E/DX2                !
 ! D17   D(6,5,7,9)            150.0            estimate D2E/DX2                !
 ! D18   D(6,5,7,10)           -90.0            estimate D2E/DX2                !
 ! D19   D(3,11,13,14)        -150.0            estimate D2E/DX2                !
 ! D20   D(3,11,13,15)          90.0            estimate D2E/DX2                !
 ! D21   D(3,11,13,21)         -30.0            estimate D2E/DX2                !
 ! D22   D(12,11,13,14)         30.0            estimate D2E/DX2                !
 ! D23   D(12,11,13,15)        -90.0            estimate D2E/DX2                !
 ! D24   D(12,11,13,21)        150.0            estimate D2E/DX2                !
 ! D25   D(11,13,21,16)        180.0            estimate D2E/DX2                !
 ! D26   D(14,13,21,16)        -60.0            estimate D2E/DX2                !
 ! D27   D(15,13,21,16)         60.0            estimate D2E/DX2                !
 ! D28   D(21,16,17,18)         30.0            estimate D2E/DX2                !
 ! D29   D(21,16,17,19)        150.0            estimate D2E/DX2                !
 ! D30   D(21,16,17,20)        -90.0            estimate D2E/DX2                !
 ! D31   D(22,16,17,18)       -150.0            estimate D2E/DX2                !
 ! D32   D(22,16,17,19)        -30.0            estimate D2E/DX2                !
 ! D33   D(22,16,17,20)         90.0            estimate D2E/DX2                !
 ! D34   D(17,16,21,13)        -30.0            estimate D2E/DX2                !
 ! D35   D(22,16,21,13)        150.0            estimate D2E/DX2                !
 --------------------------------------------------------------------------------
 Trust Radius=3.00D-01 FncErr=1.00D-07 GrdErr=1.00D-07
 Number of steps in this run=    100 maximum allowed number of steps=    132.
 GradGradGradGradGradGradGradGradGradGradGradGradGradGradGradGradGradGrad

                          Input orientation:                          
 ---------------------------------------------------------------------
 Center     Atomic      Atomic             Coordinates (Angstroms)
 Number     Number       Type             X           Y           Z
 ---------------------------------------------------------------------
      1          6           0       -1.621073    0.312416   -0.470291
      2          1           0       -2.614323    0.413370   -0.855210
      3          6           0       -0.977075    1.471802    0.312453
      4          1           0       -1.522871    2.378305    0.471388
      5          6           0       -0.929800   -0.835708   -0.671588
      6          1           0        0.063451   -0.936661   -0.286671
      7          6           0       -1.573800   -1.995096   -1.454328
      8          1           0       -1.183107   -2.925715   -1.099069
      9          1           0       -2.634135   -1.975877   -1.312127
     10          1           0       -1.351613   -1.889247   -2.495639
     11          6           0        0.280918    1.343939    0.799971
     12          1           0        0.826714    0.437437    0.641036
     13          6           0        0.924916    2.503326    1.582716
     14          1           0        1.985251    2.484106    1.440519
     15          1           0        0.702725    2.397474    2.624026
     16          6           0        1.000776    4.823624    1.834766
     17          6           0        1.451387    4.612200    3.292109
     18          1           0        1.737070    3.590641    3.432470
     19          1           0        2.285614    5.248092    3.503313
     20          1           0        0.644566    4.850970    3.953114
     21          8           0        0.402778    3.747050    1.107932
     22          8           0        1.158800    5.943771    1.283523
 ---------------------------------------------------------------------
                    Distance matrix (angstroms):
                    1          2          3          4          5
     1  C    0.000000
     2  H    1.070000   0.000000
     3  C    1.540000   2.272510   0.000000
     4  H    2.272510   2.610000   1.070000   0.000000
     5  C    1.355200   2.105120   2.509019   3.462370   0.000000
     6  H    2.105120   3.052261   2.691159   3.752342   1.070000
     7  C    2.509019   2.691159   3.936621   4.778871   1.540000
     8  H    3.327561   3.641062   4.623094   5.542057   2.148263
     9  H    2.640315   2.432625   4.155911   4.834742   2.148263
    10  H    3.003658   3.096367   4.395715   5.200440   2.148263
    11  C    2.509019   3.462370   1.355200   2.105120   2.895200
    12  H    2.691159   3.752342   2.105120   3.052261   2.535590
    13  C    3.936621   4.778871   2.509019   2.691159   4.435200
    14  H    4.623095   5.542058   3.327561   3.641061   4.896905
    15  H    4.395714   5.200438   3.003658   3.096368   4.896904
    16  C    5.704242   6.305177   4.178999   3.769241   6.483592
    17  C    6.487204   7.166620   4.963656   4.668294   7.145674
    18  H    6.103722   6.885773   4.646564   4.567820   6.599094
    19  H    7.443967   8.147433   5.923436   5.650912   8.048684
    20  H    6.730387   7.309764   5.225219   4.788975   7.496987
    21  O    4.287595   4.906144   2.777325   2.446789   5.093538
    22  O    6.520408   7.028227   5.050093   4.534696   7.358399
                    6          7          8          9         10
     6  H    0.000000
     7  C    2.272510   0.000000
     8  H    2.483995   1.070000   0.000000
     9  H    3.067328   1.070000   1.747303   0.000000
    10  H    2.790944   1.070000   1.747303   1.747303   0.000000
    11  C    2.535590   4.435200   4.896904   4.896904   4.896907
    12  H    1.825200   4.008770   4.286973   4.649344   4.471834
    13  C    4.008770   5.975200   6.411724   6.411724   6.411728
    14  H    4.286974   6.411726   6.764182   6.986217   6.764186
    15  H    4.471832   6.411724   6.764180   6.764180   6.986219
    16  C    6.209666   7.996344   8.569071   8.327588   8.327591
    17  C    6.747140   8.679677   9.112803   9.016277   9.144598
    18  H    6.093395   8.126691   8.457255   8.520842   8.643588
    19  H    7.586380   9.588382  10.001254   9.978884  10.007920
    20  H    7.197927   9.001678   9.452078   9.223800   9.539480
    21  O    4.898695   6.591228   7.204976   6.916026   6.916029
    22  O    7.141823   8.831112   9.477819   9.156668   9.052094
                   11         12         13         14         15
    11  C    0.000000
    12  H    1.070000   0.000000
    13  C    1.540000   2.272510   0.000000
    14  H    2.148263   2.483995   1.070000   0.000000
    15  H    2.148263   2.790944   1.070000   1.747303   0.000000
    16  C    3.700973   4.549057   2.335180   2.568651   2.568651
    17  C    4.273440   4.984682   2.765240   2.870921   2.431428
    18  H    3.754743   4.308543   2.294219   2.292135   1.774006
    19  H    5.154540   5.784758   3.615790   3.461930   3.377086
    20  H    4.730098   5.521080   3.347958   3.703056   2.790968
    21  O    2.425826   3.369162   1.430000   2.051796   2.051796
    22  O    4.707754   5.553628   3.461341   3.560471   3.818530
                   16         17         18         19         20
    16  C    0.000000
    17  C    1.540000   0.000000
    18  H    2.148263   1.070000   0.000000
    19  H    2.148263   1.070000   1.747303   0.000000
    20  H    2.148263   1.070000   1.747303   1.747303   0.000000
    21  O    1.430000   2.572683   2.684824   3.396477   3.061399
    22  O    1.258400   2.427572   3.238764   2.584792   2.930080
                   21         22
    21  O    0.000000
    22  O    2.329803   0.000000
 Stoichiometry    C8H12O2
 Framework group  C1[X(C8H12O2)]
 Deg. of freedom    60
 Full point group                 C1      NOp   1
 Largest Abelian subgroup         C1      NOp   1
 Largest concise Abelian subgroup C1      NOp   1
                         Standard orientation:                         
 ---------------------------------------------------------------------
 Center     Atomic      Atomic             Coordinates (Angstroms)
 Number     Number       Type             X           Y           Z
 ---------------------------------------------------------------------
      1          6           0        2.678411   -0.627632    0.488596
      2          1           0        3.115639   -1.436515    1.035807
      3          6           0        1.150322   -0.436481    0.486479
      4          1           0        0.525825   -1.112552    1.032220
      5          6           0        3.469362    0.228640   -0.202608
      6          1           0        3.032134    1.037521   -0.749821
      7          6           0        4.997452    0.037492   -0.200487
      8          1           0        5.476005    0.988468   -0.307867
      9          1           0        5.299446   -0.411558    0.722580
     10          1           0        5.278629   -0.597247   -1.014703
     11          6           0        0.596554    0.588004   -0.206586
     12          1           0        1.221051    1.264074   -0.752326
     13          6           0       -0.931535    0.779155   -0.208701
     14          1           0       -1.233531    1.228208   -1.131767
     15          1           0       -1.212708    1.413892    0.605517
     16          6           0       -2.990039   -0.314277   -0.067160
     17          6           0       -3.603426    0.991639    0.471298
     18          1           0       -2.919434    1.798998    0.312467
     19          1           0       -4.519630    1.193968   -0.043031
     20          1           0       -3.797400    0.889311    1.518582
     21          8           0       -1.571099   -0.491775   -0.065196
     22          8           0       -3.737481   -1.225200   -0.508885
 ---------------------------------------------------------------------
 Rotational constants (GHZ):      5.0732997      0.3998311      0.3838294
 Standard basis: VSTO-6G (5D, 7F)
 There are    52 symmetry adapted cartesian basis functions of A   symmetry.
 There are    52 symmetry adapted basis functions of A   symmetry.
    52 basis functions,   312 primitive gaussians,    52 cartesian basis functions
    28 alpha electrons       28 beta electrons
       nuclear repulsion energy       298.0822802264 Hartrees.
 Integral buffers will be    131072 words long.
 Regular integral format.
 Two-electron integral symmetry is turned off.
 Nuclear repulsion after empirical dispersion term =      298.0784233658 Hartrees.
 ------------------------------------------------------------------------------
 Polarizable Continuum Model (PCM)
 =================================
 Model                : C-PCM.
 Atomic radii         : UFF (Universal Force Field).
 Polarization charges : Total charges.
 Charge compensation  : None.
 Solution method      : On-the-fly selection.
 Cavity type          : Scaled VdW (van der Waals Surface) (Alpha=1.100).
 Cavity algorithm     : GePol (No added spheres)
                        Default sphere list used, NSphG=   22.
                        Lebedev-Laikov grids with approx.  5.0 points / Ang**2.
                        Smoothing algorithm: Karplus/York (Gamma=1.0000).
                        Polarization charges: spherical gaussians, with
                                              point-specific exponents (IZeta= 3).
                        Self-potential: point-specific (ISelfS= 7).
                        Self-field    : sphere-specific E.n sum rule (ISelfD= 2).
 1st derivatives      : Analytical E(r).r(x)/FMM algorithm (CHGder, D1EAlg=3).
                        Cavity 1st derivative terms included.
 Solvent              : Toluene, Eps=   2.374100 Eps(inf)=   2.238315
 ------------------------------------------------------------------------------
 Do NDO integrals.
 One-electron integrals computed using PRISM.
 NBasis=    52 RedAO= F EigKep=  0.00D+00  NBF=    52
 NBsUse=    52 1.00D-04 EigRej=  0.00D+00 NBFU=    52
 Simple Huckel Guess.
 Overlap will be assumed to be unity.
 Keep J ints in memory in canonical form, NReq=6653340.
 Requested convergence on RMS density matrix=1.00D-08 within 128 cycles.
 Requested convergence on MAX density matrix=1.00D-06.
 Requested convergence on             energy=1.00D-06.
 No special actions if energy rises.
 Inv3:  Mode=1 IEnd=     9709203.
 Iteration    1 A*A^-1 deviation from unit magnitude is 5.33D-15 for   1779.
 Iteration    1 A*A^-1 deviation from orthogonality  is 3.59D-15 for   1783   1529.
 Iteration    1 A^-1*A deviation from unit magnitude is 5.11D-15 for   1779.
 Iteration    1 A^-1*A deviation from orthogonality  is 2.43D-15 for   1754    397.
 Error on total polarization charges = -0.00008
 SCF Done:  E(RPM6D3) = -0.867403007315E-01 A.U. after   15 cycles
            NFock= 14  Conv=0.47D-08     -V/T= 0.9974

 **********************************************************************

            Population analysis using the SCF density.

 **********************************************************************

 Orbital symmetries:
       Occupied  (A) (A) (A) (A) (A) (A) (A) (A) (A) (A) (A) (A)
                 (A) (A) (A) (A) (A) (A) (A) (A) (A) (A) (A) (A)
                 (A) (A) (A) (A)
       Virtual   (A) (A) (A) (A) (A) (A) (A) (A) (A) (A) (A) (A)
                 (A) (A) (A) (A) (A) (A) (A) (A) (A) (A) (A) (A)
 The electronic state is 1-A.
 Alpha  occ. eigenvalues --   -1.15089  -1.14080  -1.05096  -1.00691  -0.99692
 Alpha  occ. eigenvalues --   -0.93315  -0.85006  -0.79202  -0.76578  -0.68229
 Alpha  occ. eigenvalues --   -0.66408  -0.63143  -0.61038  -0.58631  -0.56402
 Alpha  occ. eigenvalues --   -0.55399  -0.53516  -0.53233  -0.52436  -0.50390
 Alpha  occ. eigenvalues --   -0.50158  -0.49218  -0.45857  -0.44972  -0.43142
 Alpha  occ. eigenvalues --   -0.41278  -0.40584  -0.34830
 Alpha virt. eigenvalues --   -0.00016   0.00565   0.03038   0.05729   0.08103
 Alpha virt. eigenvalues --    0.10760   0.12829   0.13906   0.14615   0.16834
 Alpha virt. eigenvalues --    0.17571   0.17926   0.18602   0.18685   0.19366
 Alpha virt. eigenvalues --    0.20138   0.20533   0.21211   0.21277   0.21856
 Alpha virt. eigenvalues --    0.22352   0.23152   0.23900   0.24854
          Condensed to atoms (all electrons):
               1          2          3          4          5          6
     1  C    4.222998   0.000000   0.000000   0.000000   0.000000   0.000000
     2  H    0.000000   0.844248   0.000000   0.000000   0.000000   0.000000
     3  C    0.000000   0.000000   4.078099   0.000000   0.000000   0.000000
     4  H    0.000000   0.000000   0.000000   0.846034   0.000000   0.000000
     5  C    0.000000   0.000000   0.000000   0.000000   4.073650   0.000000
     6  H    0.000000   0.000000   0.000000   0.000000   0.000000   0.861987
     7  C    0.000000   0.000000   0.000000   0.000000   0.000000   0.000000
     8  H    0.000000   0.000000   0.000000   0.000000   0.000000   0.000000
     9  H    0.000000   0.000000   0.000000   0.000000   0.000000   0.000000
    10  H    0.000000   0.000000   0.000000   0.000000   0.000000   0.000000
    11  C    0.000000   0.000000   0.000000   0.000000   0.000000   0.000000
    12  H    0.000000   0.000000   0.000000   0.000000   0.000000   0.000000
    13  C    0.000000   0.000000   0.000000   0.000000   0.000000   0.000000
    14  H    0.000000   0.000000   0.000000   0.000000   0.000000   0.000000
    15  H    0.000000   0.000000   0.000000   0.000000   0.000000   0.000000
    16  C    0.000000   0.000000   0.000000   0.000000   0.000000   0.000000
    17  C    0.000000   0.000000   0.000000   0.000000   0.000000   0.000000
    18  H    0.000000   0.000000   0.000000   0.000000   0.000000   0.000000
    19  H    0.000000   0.000000   0.000000   0.000000   0.000000   0.000000
    20  H    0.000000   0.000000   0.000000   0.000000   0.000000   0.000000
    21  O    0.000000   0.000000   0.000000   0.000000   0.000000   0.000000
    22  O    0.000000   0.000000   0.000000   0.000000   0.000000   0.000000
               7          8          9         10         11         12
     1  C    0.000000   0.000000   0.000000   0.000000   0.000000   0.000000
     2  H    0.000000   0.000000   0.000000   0.000000   0.000000   0.000000
     3  C    0.000000   0.000000   0.000000   0.000000   0.000000   0.000000
     4  H    0.000000   0.000000   0.000000   0.000000   0.000000   0.000000
     5  C    0.000000   0.000000   0.000000   0.000000   0.000000   0.000000
     6  H    0.000000   0.000000   0.000000   0.000000   0.000000   0.000000
     7  C    4.471111   0.000000   0.000000   0.000000   0.000000   0.000000
     8  H    0.000000   0.840920   0.000000   0.000000   0.000000   0.000000
     9  H    0.000000   0.000000   0.838629   0.000000   0.000000   0.000000
    10  H    0.000000   0.000000   0.000000   0.834073   0.000000   0.000000
    11  C    0.000000   0.000000   0.000000   0.000000   4.231434   0.000000
    12  H    0.000000   0.000000   0.000000   0.000000   0.000000   0.836502
    13  C    0.000000   0.000000   0.000000   0.000000   0.000000   0.000000
    14  H    0.000000   0.000000   0.000000   0.000000   0.000000   0.000000
    15  H    0.000000   0.000000   0.000000   0.000000   0.000000   0.000000
    16  C    0.000000   0.000000   0.000000   0.000000   0.000000   0.000000
    17  C    0.000000   0.000000   0.000000   0.000000   0.000000   0.000000
    18  H    0.000000   0.000000   0.000000   0.000000   0.000000   0.000000
    19  H    0.000000   0.000000   0.000000   0.000000   0.000000   0.000000
    20  H    0.000000   0.000000   0.000000   0.000000   0.000000   0.000000
    21  O    0.000000   0.000000   0.000000   0.000000   0.000000   0.000000
    22  O    0.000000   0.000000   0.000000   0.000000   0.000000   0.000000
              13         14         15         16         17         18
     1  C    0.000000   0.000000   0.000000   0.000000   0.000000   0.000000
     2  H    0.000000   0.000000   0.000000   0.000000   0.000000   0.000000
     3  C    0.000000   0.000000   0.000000   0.000000   0.000000   0.000000
     4  H    0.000000   0.000000   0.000000   0.000000   0.000000   0.000000
     5  C    0.000000   0.000000   0.000000   0.000000   0.000000   0.000000
     6  H    0.000000   0.000000   0.000000   0.000000   0.000000   0.000000
     7  C    0.000000   0.000000   0.000000   0.000000   0.000000   0.000000
     8  H    0.000000   0.000000   0.000000   0.000000   0.000000   0.000000
     9  H    0.000000   0.000000   0.000000   0.000000   0.000000   0.000000
    10  H    0.000000   0.000000   0.000000   0.000000   0.000000   0.000000
    11  C    0.000000   0.000000   0.000000   0.000000   0.000000   0.000000
    12  H    0.000000   0.000000   0.000000   0.000000   0.000000   0.000000
    13  C    4.021358   0.000000   0.000000   0.000000   0.000000   0.000000
    14  H    0.000000   0.865797   0.000000   0.000000   0.000000   0.000000
    15  H    0.000000   0.000000   0.863731   0.000000   0.000000   0.000000
    16  C    0.000000   0.000000   0.000000   3.333029   0.000000   0.000000
    17  C    0.000000   0.000000   0.000000   0.000000   4.597178   0.000000
    18  H    0.000000   0.000000   0.000000   0.000000   0.000000   0.809246
    19  H    0.000000   0.000000   0.000000   0.000000   0.000000   0.000000
    20  H    0.000000   0.000000   0.000000   0.000000   0.000000   0.000000
    21  O    0.000000   0.000000   0.000000   0.000000   0.000000   0.000000
    22  O    0.000000   0.000000   0.000000   0.000000   0.000000   0.000000
              19         20         21         22
     1  C    0.000000   0.000000   0.000000   0.000000
     2  H    0.000000   0.000000   0.000000   0.000000
     3  C    0.000000   0.000000   0.000000   0.000000
     4  H    0.000000   0.000000   0.000000   0.000000
     5  C    0.000000   0.000000   0.000000   0.000000
     6  H    0.000000   0.000000   0.000000   0.000000
     7  C    0.000000   0.000000   0.000000   0.000000
     8  H    0.000000   0.000000   0.000000   0.000000
     9  H    0.000000   0.000000   0.000000   0.000000
    10  H    0.000000   0.000000   0.000000   0.000000
    11  C    0.000000   0.000000   0.000000   0.000000
    12  H    0.000000   0.000000   0.000000   0.000000
    13  C    0.000000   0.000000   0.000000   0.000000
    14  H    0.000000   0.000000   0.000000   0.000000
    15  H    0.000000   0.000000   0.000000   0.000000
    16  C    0.000000   0.000000   0.000000   0.000000
    17  C    0.000000   0.000000   0.000000   0.000000
    18  H    0.000000   0.000000   0.000000   0.000000
    19  H    0.794007   0.000000   0.000000   0.000000
    20  H    0.000000   0.793841   0.000000   0.000000
    21  O    0.000000   0.000000   6.426815   0.000000
    22  O    0.000000   0.000000   0.000000   6.515313
 Mulliken charges:
               1
     1  C   -0.222998
     2  H    0.155752
     3  C   -0.078099
     4  H    0.153966
     5  C   -0.073650
     6  H    0.138013
     7  C   -0.471111
     8  H    0.159080
     9  H    0.161371
    10  H    0.165927
    11  C   -0.231434
    12  H    0.163498
    13  C   -0.021358
    14  H    0.134203
    15  H    0.136269
    16  C    0.666971
    17  C   -0.597178
    18  H    0.190754
    19  H    0.205993
    20  H    0.206159
    21  O   -0.426815
    22  O   -0.515313
 Sum of Mulliken charges =   0.00000
 Mulliken charges with hydrogens summed into heavy atoms:
               1
     1  C   -0.067246
     3  C    0.075867
     5  C    0.064363
     7  C    0.015266
    11  C   -0.067936
    13  C    0.249114
    16  C    0.666971
    17  C    0.005728
    21  O   -0.426815
    22  O   -0.515313
 Charge=              0.0000 electrons
 Dipole moment (field-independent basis, Debye):
    X=              2.4513    Y=              4.9762    Z=              1.2436  Tot=              5.6849
 N-N= 2.980784233658D+02 E-N=-5.255361662346D+02  KE=-3.377556174935D+01
 D1PCM: C-PCM CHGder 1st derivatives, ID1Alg=3 FixD1E=F DoIter=F DoCFld=F I1PDM=0.
 Calling FoFJK, ICntrl=      2127 FMM=F ISym2X=0 I1Cent= 0 IOpClX= 0 NMat=1 NMatS=1 NMatT=0.
 ***** Axes restored to original set *****
 -------------------------------------------------------------------
 Center     Atomic                   Forces (Hartrees/Bohr)
 Number     Number              X              Y              Z
 -------------------------------------------------------------------
      1        6           0.035133703    0.015879657    0.022292005
      2        1          -0.006000969    0.008901126    0.001177158
      3        6           0.003905044   -0.042950277   -0.016414435
      4        1          -0.009800897    0.003570980   -0.003356918
      5        6          -0.031806926    0.003519134   -0.012960483
      6        1           0.008221209   -0.008952119   -0.000738147
      7        6           0.022939054    0.032548062    0.026569581
      8        1           0.003534374   -0.013451517    0.002557092
      9        1          -0.014498917   -0.002873065   -0.000538066
     10        1           0.002220078   -0.000097951   -0.014226006
     11        6          -0.023619465    0.032959483    0.000647488
     12        1           0.012088327   -0.002398757    0.004108100
     13        6          -0.014156216   -0.052735161   -0.023639478
     14        1           0.020064502    0.000023402   -0.004974871
     15        1          -0.006551360   -0.005517327    0.020372238
     16        6           0.010455768    0.059447555   -0.016203577
     17        6          -0.014693422   -0.000358004   -0.046355319
     18        1           0.007053141   -0.012457254    0.011683322
     19        1           0.011568187    0.009624045    0.004790090
     20        1          -0.010852946    0.004092182    0.010992020
     21        8           0.014702791    0.047785367    0.011101090
     22        8          -0.019905062   -0.076559560    0.023117118
 -------------------------------------------------------------------
 Cartesian Forces:  Max     0.076559560 RMS     0.021814833

 GradGradGradGradGradGradGradGradGradGradGradGradGradGradGradGradGradGrad
 Berny optimization.
 FormGI is forming the generalized inverse of G from B-inverse, IUseBI=4.
 Internal  Forces:  Max     0.080771937 RMS     0.015507501
 Search for a local minimum.
 Step number   1 out of a maximum of  100
 All quantities printed in internal units (Hartrees-Bohrs-Radians)
 Mixed Optimization -- RFO/linear search
 Second derivative matrix not updated -- first step.
 ITU=  0
     Eigenvalues ---    0.00237   0.00237   0.00237   0.00237   0.00501
     Eigenvalues ---    0.01215   0.01215   0.01295   0.01295   0.01459
     Eigenvalues ---    0.01459   0.02681   0.02681   0.06248   0.07241
     Eigenvalues ---    0.07243   0.07243   0.07243   0.07243   0.11346
     Eigenvalues ---    0.13882   0.16000   0.16000   0.16000   0.16000
     Eigenvalues ---    0.16000   0.16000   0.16000   0.16000   0.16000
     Eigenvalues ---    0.16000   0.22000   0.22000   0.22000   0.22000
     Eigenvalues ---    0.22113   0.25000   0.25000   0.25000   0.28519
     Eigenvalues ---    0.28519   0.28519   0.28519   0.37230   0.37230
     Eigenvalues ---    0.37230   0.37230   0.37230   0.37230   0.37230
     Eigenvalues ---    0.37230   0.37230   0.37230   0.37230   0.37230
     Eigenvalues ---    0.40989   0.40989   0.53930   0.53930   0.80209
 RFO step:  Lambda=-5.40358332D-02 EMin= 2.36824035D-03
 Linear search not attempted -- first point.
 Maximum step size (   0.300) exceeded in Quadratic search.
    -- Step size scaled by   0.767
 Iteration  1 RMS(Cart)=  0.19407423 RMS(Int)=  0.01151552
 Iteration  2 RMS(Cart)=  0.02835590 RMS(Int)=  0.00027520
 Iteration  3 RMS(Cart)=  0.00036236 RMS(Int)=  0.00022209
 Iteration  4 RMS(Cart)=  0.00000011 RMS(Int)=  0.00022209
 Variable       Old X    -DE/DX   Delta X   Delta X   Delta X     New X
                                 (Linear)    (Quad)   (Total)
    R1        2.02201   0.00599   0.00000   0.01077   0.01077   2.03278
    R2        2.91018  -0.04723   0.00000  -0.10678  -0.10678   2.80340
    R3        2.56096  -0.01394   0.00000  -0.01802  -0.01802   2.54294
    R4        2.02201   0.00753   0.00000   0.01354   0.01354   2.03554
    R5        2.56096  -0.01480   0.00000  -0.01913  -0.01913   2.54183
    R6        2.02201   0.00821   0.00000   0.01477   0.01477   2.03678
    R7        2.91018  -0.02538   0.00000  -0.05737  -0.05737   2.85280
    R8        2.02201   0.01384   0.00000   0.02490   0.02490   2.04691
    R9        2.02201   0.01425   0.00000   0.02563   0.02563   2.04763
   R10        2.02201   0.01429   0.00000   0.02571   0.02571   2.04772
   R11        2.02201   0.00759   0.00000   0.01365   0.01365   2.03566
   R12        2.91018  -0.02567   0.00000  -0.05803  -0.05803   2.85214
   R13        2.02201   0.02054   0.00000   0.03696   0.03696   2.05896
   R14        2.02201   0.02173   0.00000   0.03910   0.03910   2.06110
   R15        2.70231   0.02838   0.00000   0.04692   0.04692   2.74922
   R16        2.91018  -0.02004   0.00000  -0.04531  -0.04531   2.86487
   R17        2.70231  -0.02514   0.00000  -0.04156  -0.04156   2.66075
   R18        2.37803  -0.08077   0.00000  -0.07236  -0.07236   2.30567
   R19        2.02201   0.01531   0.00000   0.02753   0.02753   2.04954
   R20        2.02201   0.01568   0.00000   0.02821   0.02821   2.05022
   R21        2.02201   0.01589   0.00000   0.02858   0.02858   2.05059
    A1        2.09440  -0.01533   0.00000  -0.05004  -0.05004   2.04435
    A2        2.09440   0.00284   0.00000   0.01507   0.01507   2.10947
    A3        2.09440   0.01249   0.00000   0.03497   0.03497   2.12936
    A4        2.09440  -0.01457   0.00000  -0.04707  -0.04707   2.04732
    A5        2.09440   0.01307   0.00000   0.03659   0.03659   2.13098
    A6        2.09440   0.00149   0.00000   0.01048   0.01048   2.10488
    A7        2.09440   0.00680   0.00000   0.02616   0.02616   2.12056
    A8        2.09440   0.00457   0.00000   0.01278   0.01278   2.10717
    A9        2.09440  -0.01137   0.00000  -0.03894  -0.03894   2.05545
   A10        1.91063   0.00295   0.00000   0.01058   0.01051   1.92114
   A11        1.91063   0.00496   0.00000   0.01843   0.01834   1.92897
   A12        1.91063   0.00077   0.00000   0.00211   0.00208   1.91272
   A13        1.91063  -0.00330   0.00000  -0.01055  -0.01067   1.89996
   A14        1.91063  -0.00252   0.00000  -0.01032  -0.01033   1.90031
   A15        1.91063  -0.00286   0.00000  -0.01025  -0.01029   1.90034
   A16        2.09440   0.00867   0.00000   0.03262   0.03262   2.12701
   A17        2.09440   0.00399   0.00000   0.01116   0.01116   2.10556
   A18        2.09440  -0.01265   0.00000  -0.04378  -0.04378   2.05061
   A19        1.91063   0.00304   0.00000   0.00574   0.00566   1.91629
   A20        1.91063   0.00015   0.00000  -0.00437  -0.00431   1.90632
   A21        1.91063  -0.01467   0.00000  -0.04367  -0.04379   1.86684
   A22        1.91063   0.00111   0.00000   0.01372   0.01356   1.92419
   A23        1.91063   0.00350   0.00000   0.00664   0.00640   1.91704
   A24        1.91063   0.00686   0.00000   0.02194   0.02165   1.93228
   A25        2.09440   0.01983   0.00000   0.05002   0.04959   2.14398
   A26        2.09440   0.00907   0.00000   0.02288   0.02241   2.11681
   A27        2.09440  -0.02890   0.00000  -0.07290  -0.07330   2.02110
   A28        1.91063   0.01544   0.00000   0.05884   0.05858   1.96921
   A29        1.91063  -0.00115   0.00000  -0.00618  -0.00636   1.90427
   A30        1.91063  -0.00093   0.00000  -0.00479  -0.00501   1.90562
   A31        1.91063  -0.00566   0.00000  -0.01733  -0.01755   1.89309
   A32        1.91063  -0.00519   0.00000  -0.01449  -0.01479   1.89584
   A33        1.91063  -0.00251   0.00000  -0.01603  -0.01616   1.89448
   A34        1.91063   0.05995   0.00000   0.15123   0.15123   2.06187
    D1        0.00000  -0.00006   0.00000  -0.00069  -0.00068  -0.00068
    D2        3.14159   0.00015   0.00000   0.00163   0.00160  -3.13999
    D3       -3.14159  -0.00016   0.00000  -0.00186  -0.00183   3.13976
    D4        0.00000   0.00004   0.00000   0.00046   0.00045   0.00045
    D5        3.14159  -0.00014   0.00000  -0.00163  -0.00166   3.13993
    D6        0.00000   0.00006   0.00000   0.00071   0.00073   0.00073
    D7        0.00000  -0.00003   0.00000  -0.00045  -0.00046  -0.00047
    D8        3.14159   0.00017   0.00000   0.00189   0.00193  -3.13967
    D9        0.00000   0.00016   0.00000   0.00131   0.00128   0.00128
   D10       -3.14159   0.00022   0.00000   0.00198   0.00197  -3.13962
   D11        3.14159   0.00037   0.00000   0.00363   0.00364  -3.13795
   D12        0.00000   0.00043   0.00000   0.00430   0.00433   0.00433
   D13       -2.61799  -0.00060   0.00000  -0.00397  -0.00400  -2.62200
   D14       -0.52360   0.00020   0.00000   0.00088   0.00093  -0.52267
   D15        1.57080   0.00020   0.00000   0.00090   0.00093   1.57172
   D16        0.52360  -0.00040   0.00000  -0.00163  -0.00170   0.52190
   D17        2.61799   0.00040   0.00000   0.00322   0.00323   2.62123
   D18       -1.57080   0.00040   0.00000   0.00324   0.00323  -1.56757
   D19       -2.61799   0.00214   0.00000   0.01218   0.01213  -2.60586
   D20        1.57080  -0.00118   0.00000  -0.00546  -0.00534   1.56546
   D21       -0.52360  -0.00069   0.00000  -0.00291  -0.00297  -0.52657
   D22        0.52360   0.00220   0.00000   0.01286   0.01280   0.53639
   D23       -1.57080  -0.00112   0.00000  -0.00479  -0.00468  -1.57547
   D24        2.61799  -0.00063   0.00000  -0.00224  -0.00231   2.61569
   D25        3.14159   0.00005   0.00000   0.00522   0.00505  -3.13654
   D26       -1.04720  -0.00306   0.00000  -0.01042  -0.01054  -1.05774
   D27        1.04720   0.00465   0.00000   0.02388   0.02417   1.07137
   D28        0.52360   0.00273   0.00000   0.03395   0.03433   0.55793
   D29        2.61799   0.00454   0.00000   0.04496   0.04534   2.66333
   D30       -1.57080   0.00020   0.00000   0.01861   0.01889  -1.55191
   D31       -2.61799  -0.00162   0.00000  -0.02246  -0.02277  -2.64076
   D32       -0.52360   0.00020   0.00000  -0.01144  -0.01176  -0.53535
   D33        1.57080  -0.00415   0.00000  -0.03780  -0.03821   1.53259
   D34       -0.52360  -0.00260   0.00000  -0.03313  -0.03202  -0.55562
   D35        2.61799   0.00174   0.00000   0.02328   0.02218   2.64017
         Item               Value     Threshold  Converged?
 Maximum Force            0.080772     0.000450     NO 
 RMS     Force            0.015508     0.000300     NO 
 Maximum Displacement     0.693700     0.001800     NO 
 RMS     Displacement     0.212093     0.001200     NO 
 Predicted change in Energy=-2.820718D-02
 GradGradGradGradGradGradGradGradGradGradGradGradGradGradGradGradGradGrad

                          Input orientation:                          
 ---------------------------------------------------------------------
 Center     Atomic      Atomic             Coordinates (Angstroms)
 Number     Number       Type             X           Y           Z
 ---------------------------------------------------------------------
      1          6           0       -1.546371    0.323530   -0.417856
      2          1           0       -2.545341    0.533510   -0.757113
      3          6           0       -0.869438    1.372605    0.383370
      4          1           0       -1.418728    2.279077    0.575393
      5          6           0       -0.947357   -0.844100   -0.715571
      6          1           0        0.053647   -1.064556   -0.382284
      7          6           0       -1.662266   -1.890923   -1.535374
      8          1           0       -1.319123   -2.879755   -1.256560
      9          1           0       -2.732369   -1.833407   -1.375137
     10          1           0       -1.456146   -1.731897   -2.587241
     11          6           0        0.379971    1.215876    0.856282
     12          1           0        0.948919    0.319554    0.673756
     13          6           0        1.036418    2.304106    1.670398
     14          1           0        2.113925    2.286016    1.509820
     15          1           0        0.809433    2.149448    2.725936
     16          6           0        0.951185    4.754363    1.811514
     17          6           0        1.383040    4.821839    3.263162
     18          1           0        1.823101    3.895005    3.614754
     19          1           0        2.113852    5.615183    3.379754
     20          1           0        0.521465    5.052702    3.881130
     21          8           0        0.489301    3.569815    1.206539
     22          8           0        0.930051    5.752227    1.109739
 ---------------------------------------------------------------------
                    Distance matrix (angstroms):
                    1          2          3          4          5
     1  C    0.000000
     2  H    1.075699   0.000000
     3  C    1.483496   2.193953   0.000000
     4  H    2.197043   2.468164   1.077164   0.000000
     5  C    1.345664   2.110234   2.475384   3.412186   0.000000
     6  H    2.118515   3.073931   2.716260   3.776892   1.077817
     7  C    2.483159   2.695067   3.867916   4.680122   1.509639
     8  H    3.319051   3.661070   4.579755   5.475355   2.138871
     9  H    2.641090   2.453412   4.103824   4.737377   2.144767
    10  H    2.989841   3.109306   4.336668   5.107990   2.133120
    11  C    2.475985   3.409708   1.345077   2.108225   2.911360
    12  H    2.723620   3.781933   2.121241   3.074924   2.623010
    13  C    3.867077   4.675127   2.481214   2.688383   4.420341
    14  H    4.578761   5.469828   3.317177   3.654153   4.911358
    15  H    4.332114   5.098763   2.984913   3.099409   4.887904
    16  C    5.553391   6.053027   4.097627   3.643010   6.429106
    17  C    6.508926   7.069975   5.026337   4.641082   7.305061
    18  H    6.353796   7.035350   4.904499   4.728466   6.991871
    19  H    7.471322   8.040220   5.989808   5.610094   8.238022
    20  H    6.717314   7.165312   5.264224   4.731305   7.619670
    21  O    4.161849   4.720607   2.711367   2.388498   5.024056
    22  O    6.159299   6.542055   4.790288   4.226708   7.097038
                    6          7          8          9         10
     6  H    0.000000
     7  C    2.226400   0.000000
     8  H    2.437992   1.083177   0.000000
     9  H    3.055941   1.083561   1.762432   0.000000
    10  H    2.754389   1.083605   1.762687   1.763022   0.000000
    11  C    2.615511   4.420740   4.911742   4.895305   4.890658
    12  H    1.957675   4.072438   4.371008   4.731288   4.541684
    13  C    4.065369   5.929430   6.402193   6.371660   6.374142
    14  H    4.364760   6.401534   6.791455   6.984210   6.758324
    15  H    4.534541   6.371236   6.758987   6.725050   6.958989
    16  C    6.283163   7.886166   8.535053   8.192804   8.198528
    17  C    7.050262   8.795510   9.329743   9.096302   9.232532
    18  H    6.610939   8.494031   8.916313   8.858105   8.993343
    19  H    7.938279   9.734432  10.268626  10.078508  10.115804
    20  H    7.471038   9.073099   9.628474   9.253880   9.580269
    21  O    4.918490   6.478193   7.136820   6.799928   6.803358
    22  O    7.032975   8.493201   9.228719   8.782356   8.681803
                   11         12         13         14         15
    11  C    0.000000
    12  H    1.077224   0.000000
    13  C    1.509289   2.222476   0.000000
    14  H    2.139839   2.433766   1.089556   0.000000
    15  H    2.133448   2.753073   1.090688   1.788656   0.000000
    16  C    3.709400   4.578431   2.455797   2.745126   2.764389
    17  C    4.449965   5.211915   2.999337   3.168406   2.785554
    18  H    4.107253   4.711424   2.632555   2.665365   2.205559
    19  H    5.359866   6.059965   3.878916   3.818377   3.760360
    20  H    4.887839   5.733469   3.564729   3.976631   3.137879
    21  O    2.382365   3.325553   1.454827   2.092730   2.104399
    22  O    4.576605   5.450172   3.495024   3.684595   3.950527
                   16         17         18         19         20
    16  C    0.000000
    17  C    1.516025   0.000000
    18  H    2.179543   1.084570   0.000000
    19  H    2.133584   1.084931   1.760333   0.000000
    20  H    2.134708   1.085124   1.762236   1.761663   0.000000
    21  O    1.408008   2.568273   2.772051   3.397875   3.058337
    22  O    1.220110   2.389153   3.243750   2.563812   2.887367
                   21         22
    21  O    0.000000
    22  O    2.228577   0.000000
 Stoichiometry    C8H12O2
 Framework group  C1[X(C8H12O2)]
 Deg. of freedom    60
 Full point group                 C1      NOp   1
 Largest Abelian subgroup         C1      NOp   1
 Largest concise Abelian subgroup C1      NOp   1
                         Standard orientation:                         
 ---------------------------------------------------------------------
 Center     Atomic      Atomic             Coordinates (Angstroms)
 Number     Number       Type             X           Y           Z
 ---------------------------------------------------------------------
      1          6           0        2.579258   -0.585871    0.470852
      2          1           0        2.907239   -1.443105    1.031839
      3          6           0        1.121651   -0.311090    0.445622
      4          1           0        0.482112   -0.986183    0.989240
      5          6           0        3.463470    0.194806   -0.176855
      6          1           0        3.146052    1.055189   -0.743138
      7          6           0        4.940778   -0.112967   -0.133853
      8          1           0        5.513848    0.802118   -0.220357
      9          1           0        5.199988   -0.601831    0.797773
     10          1           0        5.199579   -0.767932   -0.957407
     11          6           0        0.602603    0.732450   -0.225829
     12          1           0        1.222651    1.418167   -0.778770
     13          6           0       -0.885794    0.982703   -0.227199
     14          1           0       -1.180027    1.452989   -1.164957
     15          1           0       -1.142462    1.626656    0.614851
     16          6           0       -2.941571   -0.352890   -0.082608
     17          6           0       -3.788232    0.763399    0.496527
     18          1           0       -3.332552    1.740719    0.380363
     19          1           0       -4.752389    0.772470   -0.000859
     20          1           0       -3.947095    0.578584    1.553929
     21          8           0       -1.534226   -0.313408   -0.100108
     22          8           0       -3.449515   -1.375477   -0.512698
 ---------------------------------------------------------------------
 Rotational constants (GHZ):      4.8716882      0.4107939      0.3924918
 Standard basis: VSTO-6G (5D, 7F)
 There are    52 symmetry adapted cartesian basis functions of A   symmetry.
 There are    52 symmetry adapted basis functions of A   symmetry.
    52 basis functions,   312 primitive gaussians,    52 cartesian basis functions
    28 alpha electrons       28 beta electrons
       nuclear repulsion energy       298.7660508806 Hartrees.
 Integral buffers will be    131072 words long.
 Regular integral format.
 Two-electron integral symmetry is turned off.
 Nuclear repulsion after empirical dispersion term =      298.7621590796 Hartrees.
 ------------------------------------------------------------------------------
 Polarizable Continuum Model (PCM)
 =================================
 Model                : C-PCM.
 Atomic radii         : UFF (Universal Force Field).
 Polarization charges : Total charges.
 Charge compensation  : None.
 Solution method      : On-the-fly selection.
 Cavity type          : Scaled VdW (van der Waals Surface) (Alpha=1.100).
 Cavity algorithm     : GePol (No added spheres)
                        Default sphere list used, NSphG=   22.
                        Lebedev-Laikov grids with approx.  5.0 points / Ang**2.
                        Smoothing algorithm: Karplus/York (Gamma=1.0000).
                        Polarization charges: spherical gaussians, with
                                              point-specific exponents (IZeta= 3).
                        Self-potential: point-specific (ISelfS= 7).
                        Self-field    : sphere-specific E.n sum rule (ISelfD= 2).
 1st derivatives      : Analytical E(r).r(x)/FMM algorithm (CHGder, D1EAlg=3).
                        Cavity 1st derivative terms included.
 Solvent              : Toluene, Eps=   2.374100 Eps(inf)=   2.238315
 ------------------------------------------------------------------------------
 Do NDO integrals.
 One-electron integrals computed using PRISM.
 NBasis=    52 RedAO= F EigKep=  0.00D+00  NBF=    52
 NBsUse=    52 1.00D-04 EigRej=  0.00D+00 NBFU=    52
 Initial guess from the checkpoint file:  "diene_cpcmtoluene.chk"
 B after Tr=     0.000000    0.000000    0.000000
         Rot=    0.999947   -0.007914    0.004073   -0.005135 Ang=  -1.18 deg.
 Overlap will be assumed to be unity.
 Keep J ints in memory in canonical form, NReq=6729472.
 Requested convergence on RMS density matrix=1.00D-08 within 128 cycles.
 Requested convergence on MAX density matrix=1.00D-06.
 Requested convergence on             energy=1.00D-06.
 No special actions if energy rises.
 Inv3:  Mode=1 IEnd=     9926283.
 Iteration    1 A*A^-1 deviation from unit magnitude is 5.77D-15 for   1809.
 Iteration    1 A*A^-1 deviation from orthogonality  is 2.58D-15 for   1810   1340.
 Iteration    1 A^-1*A deviation from unit magnitude is 6.00D-15 for   1809.
 Iteration    1 A^-1*A deviation from orthogonality  is 1.73D-15 for   1292    854.
 Error on total polarization charges = -0.00006
 SCF Done:  E(RPM6D3) = -0.112151604581     A.U. after   14 cycles
            NFock= 13  Conv=0.38D-08     -V/T= 0.9967
 D1PCM: C-PCM CHGder 1st derivatives, ID1Alg=3 FixD1E=F DoIter=F DoCFld=F I1PDM=0.
 Calling FoFJK, ICntrl=      2127 FMM=F ISym2X=0 I1Cent= 0 IOpClX= 0 NMat=1 NMatS=1 NMatT=0.
 ***** Axes restored to original set *****
 -------------------------------------------------------------------
 Center     Atomic                   Forces (Hartrees/Bohr)
 Number     Number              X              Y              Z
 -------------------------------------------------------------------
      1        6           0.015514521    0.005774239    0.009657773
      2        1          -0.006005281    0.004376720   -0.000571210
      3        6           0.000568318   -0.019049231   -0.008245828
      4        1          -0.005918004    0.005535546   -0.000537778
      5        6          -0.015735966    0.000438547   -0.007031087
      6        1           0.005101153   -0.004734841   -0.000409945
      7        6           0.013647578    0.013632419    0.014933690
      8        1           0.000565409   -0.008201336   -0.000253139
      9        1          -0.008104773   -0.002263838   -0.001408233
     10        1           0.000278650   -0.000703147   -0.008532883
     11        6          -0.010507498    0.016846142    0.001009117
     12        1           0.006612486   -0.002393982    0.001696155
     13        6          -0.004724254   -0.017205102   -0.005757663
     14        1           0.008451595    0.004815715   -0.001206556
     15        1          -0.002147079    0.002900837    0.008858731
     16        6           0.001172677    0.010734489   -0.001522750
     17        6          -0.007033513   -0.013947330   -0.027123586
     18        1           0.002992991   -0.004369494    0.004694871
     19        1           0.005605675    0.006397562    0.003153857
     20        1          -0.005845462    0.001846604    0.006321620
     21        8           0.010735115    0.019491838    0.008288887
     22        8          -0.005224338   -0.019922357    0.003985956
 -------------------------------------------------------------------
 Cartesian Forces:  Max     0.027123586 RMS     0.009023471

 GradGradGradGradGradGradGradGradGradGradGradGradGradGradGradGradGradGrad
 Berny optimization.
 Using GEDIIS/GDIIS optimizer.
 FormGI is forming the generalized inverse of G from B-inverse, IUseBI=4.
 Internal  Forces:  Max     0.023442869 RMS     0.005837643
 Search for a local minimum.
 Step number   2 out of a maximum of  100
 All quantities printed in internal units (Hartrees-Bohrs-Radians)
 Mixed Optimization -- RFO/linear search
 Update second derivatives using D2CorX and points    1    2
 DE= -2.54D-02 DEPred=-2.82D-02 R= 9.01D-01
 TightC=F SS=  1.41D+00  RLast= 3.14D-01 DXNew= 5.0454D-01 9.4061D-01
 Trust test= 9.01D-01 RLast= 3.14D-01 DXMaxT set to 5.05D-01
 ITU=  1  0
 Use linear search instead of GDIIS.
     Eigenvalues ---    0.00237   0.00237   0.00237   0.00237   0.00500
     Eigenvalues ---    0.01258   0.01266   0.01292   0.01297   0.01498
     Eigenvalues ---    0.01503   0.02681   0.02681   0.06591   0.06823
     Eigenvalues ---    0.07072   0.07172   0.07272   0.07309   0.11018
     Eigenvalues ---    0.13687   0.15152   0.16000   0.16000   0.16000
     Eigenvalues ---    0.16000   0.16000   0.16000   0.16000   0.16000
     Eigenvalues ---    0.16179   0.20166   0.22000   0.22000   0.22007
     Eigenvalues ---    0.22137   0.23926   0.24996   0.26970   0.28167
     Eigenvalues ---    0.28519   0.28519   0.33986   0.35209   0.37230
     Eigenvalues ---    0.37230   0.37230   0.37230   0.37230   0.37230
     Eigenvalues ---    0.37230   0.37230   0.37230   0.37230   0.37642
     Eigenvalues ---    0.40268   0.44651   0.53930   0.55159   0.81744
 RFO step:  Lambda=-1.38303109D-02 EMin= 2.36822542D-03
 Quartic linear search produced a step of  0.42077.
 Iteration  1 RMS(Cart)=  0.12589836 RMS(Int)=  0.00759039
 Iteration  2 RMS(Cart)=  0.01585297 RMS(Int)=  0.00065999
 Iteration  3 RMS(Cart)=  0.00015062 RMS(Int)=  0.00065297
 Iteration  4 RMS(Cart)=  0.00000013 RMS(Int)=  0.00065297
 Variable       Old X    -DE/DX   Delta X   Delta X   Delta X     New X
                                 (Linear)    (Quad)   (Total)
    R1        2.03278   0.00661   0.00453   0.02149   0.02602   2.05880
    R2        2.80340  -0.01173  -0.04493  -0.02932  -0.07425   2.72915
    R3        2.54294   0.00030  -0.00758   0.00505  -0.00253   2.54041
    R4        2.03554   0.00758   0.00570   0.02436   0.03005   2.06560
    R5        2.54183   0.00032  -0.00805   0.00536  -0.00268   2.53914
    R6        2.03678   0.00558   0.00622   0.01677   0.02299   2.05977
    R7        2.85280  -0.00731  -0.02414  -0.02048  -0.04462   2.80819
    R8        2.04691   0.00760   0.01048   0.02171   0.03218   2.07909
    R9        2.04763   0.00768   0.01078   0.02180   0.03258   2.08022
   R10        2.04772   0.00823   0.01082   0.02380   0.03461   2.08233
   R11        2.03566   0.00520   0.00574   0.01565   0.02139   2.05705
   R12        2.85214  -0.00511  -0.02442  -0.00997  -0.03439   2.81775
   R13        2.05896   0.00846   0.01555   0.02192   0.03747   2.09643
   R14        2.06110   0.00861   0.01645   0.02196   0.03841   2.09952
   R15        2.74922   0.00001   0.01974  -0.01121   0.00853   2.75775
   R16        2.86487  -0.01408  -0.01906  -0.05525  -0.07431   2.79056
   R17        2.66075  -0.02344  -0.01749  -0.06784  -0.08533   2.57542
   R18        2.30567  -0.01849  -0.03045  -0.01474  -0.04518   2.26049
   R19        2.04954   0.00647   0.01159   0.01694   0.02853   2.07807
   R20        2.05022   0.00879   0.01187   0.02525   0.03712   2.08734
   R21        2.05059   0.00863   0.01203   0.02458   0.03660   2.08719
    A1        2.04435  -0.00793  -0.02106  -0.04257  -0.06363   1.98073
    A2        2.10947  -0.00093   0.00634  -0.00216   0.00418   2.11364
    A3        2.12936   0.00886   0.01471   0.04473   0.05944   2.18881
    A4        2.04732  -0.00762  -0.01981  -0.04029  -0.06011   1.98721
    A5        2.13098   0.00939   0.01540   0.04753   0.06291   2.19389
    A6        2.10488  -0.00177   0.00441  -0.00726  -0.00286   2.10201
    A7        2.12056   0.00156   0.01101   0.01169   0.02269   2.14325
    A8        2.10717   0.00537   0.00538   0.02914   0.03451   2.14168
    A9        2.05545  -0.00693  -0.01639  -0.04085  -0.05725   1.99820
   A10        1.92114   0.00321   0.00442   0.02378   0.02774   1.94888
   A11        1.92897   0.00427   0.00772   0.03132   0.03850   1.96748
   A12        1.91272   0.00175   0.00088   0.01198   0.01264   1.92536
   A13        1.89996  -0.00337  -0.00449  -0.02139  -0.02660   1.87336
   A14        1.90031  -0.00290  -0.00435  -0.02346  -0.02793   1.87237
   A15        1.90034  -0.00317  -0.00433  -0.02374  -0.02833   1.87201
   A16        2.12701   0.00229   0.01372   0.01631   0.03003   2.15705
   A17        2.10556   0.00566   0.00470   0.03130   0.03599   2.14155
   A18        2.05061  -0.00795  -0.01842  -0.04761  -0.06603   1.98458
   A19        1.91629   0.00487   0.00238   0.04808   0.04905   1.96534
   A20        1.90632   0.00409  -0.00181   0.04361   0.04045   1.94677
   A21        1.86684  -0.00417  -0.01843  -0.01886  -0.03693   1.82992
   A22        1.92419  -0.00052   0.00571   0.00744   0.01045   1.93464
   A23        1.91704  -0.00242   0.00269  -0.04098  -0.03789   1.87915
   A24        1.93228  -0.00181   0.00911  -0.03868  -0.02933   1.90295
   A25        2.14398  -0.00940   0.02087  -0.06297  -0.04291   2.10107
   A26        2.11681   0.01582   0.00943   0.07811   0.08651   2.20332
   A27        2.02110  -0.00645  -0.03084  -0.01738  -0.04890   1.97220
   A28        1.96921   0.00343   0.02465   0.01510   0.03928   2.00849
   A29        1.90427   0.00204  -0.00268   0.01812   0.01510   1.91937
   A30        1.90562   0.00118  -0.00211   0.00894   0.00661   1.91223
   A31        1.89309  -0.00236  -0.00738  -0.01116  -0.01908   1.87401
   A32        1.89584  -0.00237  -0.00622  -0.01535  -0.02191   1.87394
   A33        1.89448  -0.00217  -0.00680  -0.01721  -0.02406   1.87041
   A34        2.06187   0.00110   0.06363  -0.03094   0.03270   2.09456
    D1       -0.00068  -0.00008  -0.00029  -0.00386  -0.00410  -0.00478
    D2       -3.13999   0.00013   0.00067   0.00574   0.00631  -3.13368
    D3        3.13976  -0.00014  -0.00077  -0.00649  -0.00715   3.13261
    D4        0.00045   0.00007   0.00019   0.00312   0.00326   0.00371
    D5        3.13993  -0.00009  -0.00070  -0.00458  -0.00544   3.13449
    D6        0.00073   0.00010   0.00031   0.00430   0.00470   0.00543
    D7       -0.00047  -0.00002  -0.00020  -0.00184  -0.00213  -0.00260
    D8       -3.13967   0.00016   0.00081   0.00704   0.00801  -3.13166
    D9        0.00128   0.00008   0.00054   0.00032   0.00075   0.00203
   D10       -3.13962   0.00012   0.00083   0.00263   0.00342  -3.13620
   D11       -3.13795   0.00030   0.00153   0.01028   0.01185  -3.12611
   D12        0.00433   0.00035   0.00182   0.01258   0.01452   0.01885
   D13       -2.62200  -0.00040  -0.00168  -0.00459  -0.00640  -2.62839
   D14       -0.52267   0.00022   0.00039   0.00424   0.00489  -0.51778
   D15        1.57172   0.00009   0.00039   0.00212   0.00266   1.57438
   D16        0.52190  -0.00023  -0.00071   0.00390   0.00287   0.52477
   D17        2.62123   0.00039   0.00136   0.01273   0.01416   2.63539
   D18       -1.56757   0.00026   0.00136   0.01061   0.01193  -1.55564
   D19       -2.60586   0.00260   0.00511   0.03877   0.04508  -2.56078
   D20        1.56546  -0.00237  -0.00225  -0.02781  -0.03110   1.53436
   D21       -0.52657  -0.00005  -0.00125   0.00520   0.00388  -0.52269
   D22        0.53639   0.00264   0.00538   0.04095   0.04748   0.58388
   D23       -1.57547  -0.00232  -0.00197  -0.02563  -0.02870  -1.60417
   D24        2.61569  -0.00001  -0.00097   0.00738   0.00628   2.62197
   D25       -3.13654  -0.00025   0.00212  -0.00549  -0.00352  -3.14006
   D26       -1.05774   0.00181  -0.00443   0.01854   0.01411  -1.04362
   D27        1.07137  -0.00167   0.01017  -0.02519  -0.01487   1.05650
   D28        0.55793   0.00052   0.01444   0.03425   0.04935   0.60728
   D29        2.66333   0.00119   0.01908   0.04255   0.06256   2.72589
   D30       -1.55191   0.00045   0.00795   0.03755   0.04614  -1.50578
   D31       -2.64076  -0.00057  -0.00958  -0.01526  -0.02566  -2.66642
   D32       -0.53535   0.00010  -0.00495  -0.00695  -0.01246  -0.54782
   D33        1.53259  -0.00065  -0.01608  -0.01196  -0.02888   1.50370
   D34       -0.55562   0.00355  -0.01347   0.17538   0.16454  -0.39107
   D35        2.64017   0.00390   0.00933   0.21933   0.22603   2.86619
         Item               Value     Threshold  Converged?
 Maximum Force            0.023443     0.000450     NO 
 RMS     Force            0.005838     0.000300     NO 
 Maximum Displacement     0.598008     0.001800     NO 
 RMS     Displacement     0.135013     0.001200     NO 
 Predicted change in Energy=-8.970163D-03
 GradGradGradGradGradGradGradGradGradGradGradGradGradGradGradGradGradGrad

                          Input orientation:                          
 ---------------------------------------------------------------------
 Center     Atomic      Atomic             Coordinates (Angstroms)
 Number     Number       Type             X           Y           Z
 ---------------------------------------------------------------------
      1          6           0       -1.462270    0.344715   -0.405795
      2          1           0       -2.443681    0.657558   -0.760625
      3          6           0       -0.795354    1.342958    0.396985
      4          1           0       -1.370424    2.263624    0.525292
      5          6           0       -0.963754   -0.864061   -0.718134
      6          1           0        0.016842   -1.202699   -0.383744
      7          6           0       -1.698840   -1.842453   -1.561154
      8          1           0       -1.437240   -2.879195   -1.301946
      9          1           0       -2.791600   -1.747006   -1.468778
     10          1           0       -1.446675   -1.697212   -2.623957
     11          6           0        0.423084    1.218870    0.949637
     12          1           0        1.045184    0.331979    0.843140
     13          6           0        1.046696    2.293089    1.774569
     14          1           0        2.149800    2.330458    1.662791
     15          1           0        0.760490    2.203942    2.844380
     16          6           0        0.879926    4.732075    1.778133
     17          6           0        1.408189    4.796817    3.155593
     18          1           0        2.012640    3.931535    3.464126
     19          1           0        2.035745    5.697654    3.277044
     20          1           0        0.569951    4.884805    3.869400
     21          8           0        0.504863    3.537844    1.239147
     22          8           0        0.613599    5.664923    1.078305
 ---------------------------------------------------------------------
                    Distance matrix (angstroms):
                    1          2          3          4          5
     1  C    0.000000
     2  H    1.089469   0.000000
     3  C    1.444203   2.127632   0.000000
     4  H    2.134847   2.320541   1.093067   0.000000
     5  C    1.344326   2.123044   2.478464   3.390266   0.000000
     6  H    2.140735   3.107534   2.783805   3.842688   1.089982
     7  C    2.484858   2.728679   3.846744   4.617464   1.486029
     8  H    3.346238   3.716796   4.596190   5.458191   2.150765
     9  H    2.696729   2.530703   4.124797   4.699065   2.164274
    10  H    3.014955   3.164012   4.335084   5.060811   2.135302
    11  C    2.481109   3.385027   1.343656   2.118550   3.007222
    12  H    2.801308   3.853601   2.146791   3.109252   2.811391
    13  C    3.852929   4.613557   2.488701   2.721035   4.497008
    14  H    4.611862   5.456337   3.354303   3.700048   5.056478
    15  H    4.354426   5.064985   3.025175   3.150004   5.007711
    16  C    5.431791   5.838951   4.024953   3.567484   6.399004
    17  C    6.383121   6.878018   4.939095   4.588708   7.257921
    18  H    6.317956   6.958897   4.898256   4.781610   7.024811
    19  H    7.379253   7.859427   5.939127   5.564772   8.247093
    20  H    6.558936   6.956201   5.144551   4.671050   7.513134
    21  O    4.095304   4.581380   2.686508   2.376958   5.036323
    22  O    5.900542   6.148360   4.596599   3.976306   6.952903
                    6          7          8          9         10
     6  H    0.000000
     7  C    2.176957   0.000000
     8  H    2.401684   1.100208   0.000000
     9  H    3.059561   1.100804   1.773126   0.000000
    10  H    2.721210   1.101923   1.773383   1.773624   0.000000
    11  C    2.794089   4.492029   5.032352   4.997934   4.976958
    12  H    2.217649   4.247169   4.590802   4.938426   4.727340
    13  C    4.235499   5.980612   6.510561   6.447805   6.440997
    14  H    4.606627   6.528325   6.985485   7.130910   6.894416
    15  H    4.751736   6.467638   6.918115   6.843293   7.070593
    16  C    6.374964   7.811868   8.531564   8.124102   8.131864
    17  C    7.103305   8.716721   9.321335   9.046804   9.150184
    18  H    6.719351   8.506906   9.000176   8.925251   8.984120
    19  H    8.067974   9.706106  10.324297  10.062259  10.081325
    20  H    7.446668   8.938363   9.542082   9.152983   9.463267
    21  O    5.034351   6.453339   7.169889   6.791846   6.792488
    22  O    7.046839   8.287026   9.103488   8.545157   8.494263
                   11         12         13         14         15
    11  C    0.000000
    12  H    1.088543   0.000000
    13  C    1.491091   2.171064   0.000000
    14  H    2.173882   2.426092   1.109382   0.000000
    15  H    2.162003   2.755042   1.111016   1.828207   0.000000
    16  C    3.638368   4.501374   2.444683   2.719127   2.746380
    17  C    4.317219   5.041229   2.882110   2.976806   2.690607
    18  H    4.025903   4.556572   2.544043   2.413932   2.221833
    19  H    5.298774   5.974577   3.850547   3.735884   3.744262
    20  H    4.688887   5.487470   3.366392   3.726893   2.876456
    21  O    2.338406   3.275109   1.459340   2.084005   2.102715
    22  O    4.451992   5.355545   3.470103   3.717552   3.888314
                   16         17         18         19         20
    16  C    0.000000
    17  C    1.476702   0.000000
    18  H    2.183226   1.099666   0.000000
    19  H    2.124851   1.104575   1.776150   0.000000
    20  H    2.119624   1.104493   1.776040   1.777684   0.000000
    21  O    1.362852   2.464503   2.716416   3.340869   2.955803
    22  O    1.196200   2.387490   3.264060   2.618782   2.898396
                   21         22
    21  O    0.000000
    22  O    2.135921   0.000000
 Stoichiometry    C8H12O2
 Framework group  C1[X(C8H12O2)]
 Deg. of freedom    60
 Full point group                 C1      NOp   1
 Largest Abelian subgroup         C1      NOp   1
 Largest concise Abelian subgroup C1      NOp   1
                         Standard orientation:                         
 ---------------------------------------------------------------------
 Center     Atomic      Atomic             Coordinates (Angstroms)
 Number     Number       Type             X           Y           Z
 ---------------------------------------------------------------------
      1          6           0        2.506549   -0.565853    0.389726
      2          1           0        2.745154   -1.505935    0.885968
      3          6           0        1.094176   -0.264632    0.375815
      4          1           0        0.475231   -1.024619    0.859674
      5          6           0        3.471853    0.200984   -0.146336
      6          1           0        3.263931    1.142629   -0.654404
      7          6           0        4.909284   -0.174000   -0.108104
      8          1           0        5.560227    0.712912   -0.097220
      9          1           0        5.167180   -0.780987    0.773272
     10          1           0        5.174642   -0.763822   -1.000253
     11          6           0        0.529692    0.822401   -0.176571
     12          1           0        1.094772    1.602963   -0.682865
     13          6           0       -0.940335    1.070282   -0.146107
     14          1           0       -1.302924    1.596548   -1.052916
     15          1           0       -1.243387    1.613862    0.774239
     16          6           0       -2.899559   -0.391388   -0.108186
     17          6           0       -3.748171    0.707997    0.393671
     18          1           0       -3.379381    1.719963    0.171896
     19          1           0       -4.763508    0.626014   -0.033478
     20          1           0       -3.848426    0.626637    1.490590
     21          8           0       -1.543448   -0.258548   -0.134308
     22          8           0       -3.267107   -1.491566   -0.400436
 ---------------------------------------------------------------------
 Rotational constants (GHZ):      4.7363343      0.4245651      0.4002931
 Standard basis: VSTO-6G (5D, 7F)
 There are    52 symmetry adapted cartesian basis functions of A   symmetry.
 There are    52 symmetry adapted basis functions of A   symmetry.
    52 basis functions,   312 primitive gaussians,    52 cartesian basis functions
    28 alpha electrons       28 beta electrons
       nuclear repulsion energy       300.3770368023 Hartrees.
 Integral buffers will be    131072 words long.
 Regular integral format.
 Two-electron integral symmetry is turned off.
 Nuclear repulsion after empirical dispersion term =      300.3730899815 Hartrees.
 ------------------------------------------------------------------------------
 Polarizable Continuum Model (PCM)
 =================================
 Model                : C-PCM.
 Atomic radii         : UFF (Universal Force Field).
 Polarization charges : Total charges.
 Charge compensation  : None.
 Solution method      : On-the-fly selection.
 Cavity type          : Scaled VdW (van der Waals Surface) (Alpha=1.100).
 Cavity algorithm     : GePol (No added spheres)
                        Default sphere list used, NSphG=   22.
                        Lebedev-Laikov grids with approx.  5.0 points / Ang**2.
                        Smoothing algorithm: Karplus/York (Gamma=1.0000).
                        Polarization charges: spherical gaussians, with
                                              point-specific exponents (IZeta= 3).
                        Self-potential: point-specific (ISelfS= 7).
                        Self-field    : sphere-specific E.n sum rule (ISelfD= 2).
 1st derivatives      : Analytical E(r).r(x)/FMM algorithm (CHGder, D1EAlg=3).
                        Cavity 1st derivative terms included.
 Solvent              : Toluene, Eps=   2.374100 Eps(inf)=   2.238315
 ------------------------------------------------------------------------------
 Do NDO integrals.
 One-electron integrals computed using PRISM.
 NBasis=    52 RedAO= F EigKep=  0.00D+00  NBF=    52
 NBsUse=    52 1.00D-04 EigRej=  0.00D+00 NBFU=    52
 Initial guess from the checkpoint file:  "diene_cpcmtoluene.chk"
 B after Tr=     0.000000    0.000000    0.000000
         Rot=    0.999985   -0.004230    0.000905   -0.003385 Ang=  -0.63 deg.
 Overlap will be assumed to be unity.
 Keep J ints in memory in canonical form, NReq=6650488.
 Requested convergence on RMS density matrix=1.00D-08 within 128 cycles.
 Requested convergence on MAX density matrix=1.00D-06.
 Requested convergence on             energy=1.00D-06.
 No special actions if energy rises.
 Inv3:  Mode=1 IEnd=     9698412.
 Iteration    1 A*A^-1 deviation from unit magnitude is 6.33D-15 for   1776.
 Iteration    1 A*A^-1 deviation from orthogonality  is 2.14D-15 for   1775    492.
 Iteration    1 A^-1*A deviation from unit magnitude is 6.33D-15 for   1776.
 Iteration    1 A^-1*A deviation from orthogonality  is 1.39D-15 for   1703    882.
 Error on total polarization charges = -0.00005
 SCF Done:  E(RPM6D3) = -0.118239362641     A.U. after   14 cycles
            NFock= 13  Conv=0.26D-08     -V/T= 0.9965
 D1PCM: C-PCM CHGder 1st derivatives, ID1Alg=3 FixD1E=F DoIter=F DoCFld=F I1PDM=0.
 Calling FoFJK, ICntrl=      2127 FMM=F ISym2X=0 I1Cent= 0 IOpClX= 0 NMat=1 NMatS=1 NMatT=0.
 ***** Axes restored to original set *****
 -------------------------------------------------------------------
 Center     Atomic                   Forces (Hartrees/Bohr)
 Number     Number              X              Y              Z
 -------------------------------------------------------------------
      1        6          -0.001712246   -0.009842547   -0.005447807
      2        1          -0.003166948   -0.001341835   -0.002073726
      3        6           0.008932670    0.004535138    0.006593716
      4        1           0.000085497    0.003638606    0.001736827
      5        6          -0.001657441    0.002058664    0.000109313
      6        1           0.000999164    0.001263891    0.001042429
      7        6          -0.000975287   -0.001856854   -0.000297312
      8        1          -0.000793782    0.000410127   -0.000778832
      9        1           0.000845131   -0.000491745   -0.000859471
     10        1          -0.000688385   -0.000748597   -0.000254786
     11        6          -0.002151015   -0.001289639   -0.000693265
     12        1          -0.000781514   -0.001314265   -0.000841971
     13        6          -0.000108827   -0.003642656    0.002116163
     14        1          -0.001836782   -0.000363297    0.000348186
     15        1           0.000590192    0.000435897   -0.001716693
     16        6          -0.002083865   -0.007902149    0.014019980
[...]
 00009184,0.00005662,-0.00003303,0.08214870,-0.16352350,0.00187716,-0.1
 0413512,0.20224109,0.00115596,0.00138469,-0.00241088,-0.00020436,-0.00
 008245,-0.00000624,-0.01545922,0.01248328,0.00189554,-0.00478578,-0.00
 204430,0.00404334,-0.00002750,0.00007064,0.00014456,-0.00001399,-0.000
 10316,0.00009808,-0.00011187,0.00004314,0.00003020,-0.00001511,-0.0000
 1110,0.00000026,-0.00001200,0.00000193,0.00001678,-0.00000283,0.000018
 97,0.00002908,0.00418935,0.00117033,-0.03728726,0.01358299,0.00809261,
 0.03479595,0.00057552,0.00272171,-0.00484371,-0.00036997,-0.00074571,-
 0.00023101,-0.01984318,-0.01999122,-0.02567180,-0.00162204,-0.00143128
 ,0.00056797,0.00040913,0.00062142,0.00052222,0.00001152,0.00007320,-0.
 00022605,-0.00034823,-0.00040204,-0.00010677,0.00005968,0.00004719,-0.
 00005314,0.00005852,0.00002219,0.00009417,-0.00003289,0.00011027,0.000
 03013,-0.08799634,-0.05338320,-0.04268258,0.00618660,0.00618619,0.0023
 6896,0.42337827,0.00227718,0.00193785,-0.00189227,-0.00041760,-0.00003
 862,-0.00025031,-0.01304140,-0.00188311,-0.01227388,-0.00087505,0.0009
 6184,0.00133449,0.00002388,-0.00052936,-0.00040937,0.00026336,-0.00008
 961,0.00040865,0.00000602,0.00080482,0.00054773,-0.00013101,-0.0001623
 1,0.00002798,-0.00009267,-0.00003444,-0.00016865,0.00010121,-0.0001077
 3,-0.00000008,-0.05311070,-0.14399625,-0.07320316,-0.00189787,-0.03179
 470,-0.01819150,0.03241466,0.43209695,-0.00469954,-0.00168241,0.005226
 34,0.00030622,0.00026074,0.00009794,-0.02332089,-0.01625743,-0.0190718
 6,0.00091039,0.00106484,-0.00235337,-0.00030568,-0.00049438,-0.0005936
 1,-0.00017385,0.00007355,0.00008853,0.00044371,-0.00013986,-0.00018546
 ,0.00002296,0.00004981,0.00002791,0.00000243,-0.00000073,0.00000990,-0
 .00004012,-0.00006349,-0.00004090,-0.04267754,-0.07379295,-0.12210409,
 -0.00104771,-0.01277397,0.00012517,0.03769812,0.03968824,0.43397097,0.
 00023184,0.00022697,-0.00038220,-0.00004041,0.00000814,-0.00006393,0.0
 0002276,-0.00077227,-0.00009642,-0.00022627,0.00013696,0.00024846,-0.0
 0000456,-0.00008665,-0.00006261,0.00004477,-0.00003769,0.00008569,0.00
 000897,0.00019452,0.00011204,-0.00002334,-0.00003572,0.00000917,-0.000
 01548,-0.00000978,-0.00004077,0.00002954,-0.00002881,-0.00000374,-0.01
 837755,-0.01841366,-0.00355284,0.00014937,-0.00044006,-0.00019455,-0.1
 6439387,-0.04905437,0.05268075,0.21620483,0.00034082,0.00035666,-0.000
 92263,-0.00006109,-0.00011157,-0.00003164,-0.00045622,-0.00110179,-0.0
 0033674,-0.00004614,-0.00025288,0.00020238,0.00005914,0.00011542,0.000
 09104,0.00001064,0.00000691,-0.00003604,-0.00006037,-0.00003877,0.0000
 0382,0.00000215,0.00000221,-0.00000895,0.00000329,0.00000253,0.0000097
 4,-0.00000527,0.00001620,0.00000489,-0.02322439,-0.01225006,-0.0019845
 8,-0.00018883,-0.00048873,-0.00026423,-0.05621386,-0.05123571,0.023033
 10,0.05834635,0.07064871,0.00022791,0.00030966,-0.00086203,-0.00006214
 ,-0.00012194,-0.00001502,-0.00026814,-0.00106323,-0.00061616,-0.000109
 70,-0.00024748,0.00028212,0.00004480,0.00013439,0.00007084,0.00001388,
 0.00002198,-0.00002764,-0.00005281,-0.00006396,-0.00002849,0.00000576,
 0.00000542,-0.00000772,0.00000349,0.00000041,0.00001753,-0.00001082,0.
 00001567,0.00000852,-0.01255512,-0.00778233,0.00517984,-0.00021765,-0.
 00015476,-0.00012315,0.05401799,0.01990350,-0.05441486,-0.06279783,-0.
 01806803,0.06054875,-0.00043035,-0.00023362,0.00033762,0.00003545,0.00
 002214,-0.00000712,-0.00002361,-0.00085691,-0.00033759,0.00017105,0.00
 017807,-0.00018458,-0.00004196,-0.00002391,-0.00007024,0.00000277,0.00
 000146,0.00001542,0.00002697,0.00002424,0.00001083,-0.00000111,-0.0000
 0465,0.00000061,-0.00000128,-0.00000293,-0.00000810,0.00000409,-0.0000
 1072,-0.00000497,0.00077529,-0.00219776,-0.01541500,0.00005401,-0.0000
 9066,-0.00002711,-0.03283841,0.00074339,-0.00559924,-0.00060133,-0.007
 15422,0.01836775,0.04121838,-0.00078515,-0.00039175,0.00066921,0.00007
 728,0.00000210,0.00003372,-0.00056085,-0.00101648,-0.00102985,0.000307
 77,-0.00014903,-0.00020482,-0.00001104,0.00007558,0.00001611,-0.000063
 69,0.00004353,-0.00009231,0.00002914,-0.00019138,-0.00009157,0.0000240
 2,0.00003473,-0.00001376,0.00001869,0.00000884,0.00003053,-0.00002652,
 0.00001967,-0.00001015,-0.00389017,0.00341765,-0.01792655,-0.00022143,
 -0.00014743,-0.00048538,0.00232965,-0.04519189,0.04453004,-0.00349754,
 0.00045239,0.01012332,-0.00965656,0.06831866,-0.00044184,-0.00025572,0
 .00050788,0.00002621,0.00006443,-0.00000797,0.00002138,-0.00078786,-0.
 00070991,0.00013001,0.00020426,-0.00015333,-0.00005501,-0.00009579,-0.
 00011734,-0.00000122,-0.00002607,0.00007920,0.00008144,0.00011963,0.00
 002670,-0.00001429,-0.00001689,0.00001736,-0.00001405,-0.00000818,-0.0
 0002175,0.00001012,-0.00003085,-0.00000266,-0.00931960,-0.00774030,-0.
 02975674,0.00001281,-0.00059245,-0.00018100,-0.00967456,0.05085297,-0.
 19251448,0.00563575,0.00626068,-0.01223269,0.02025573,-0.05773308,0.23
 817334,-0.00017740,-0.00005635,-0.00008021,0.00005513,-0.00006737,-0.0
 0000432,-0.00014045,-0.00059822,-0.00047533,0.00033821,-0.00019899,0.0
 0007283,-0.00002757,-0.00000289,-0.00008331,0.00004312,-0.00000955,0.0
 0002063,-0.00007940,0.00005601,0.00003052,0.00002037,-0.00002565,-0.00
 000417,0.00002417,-0.00001609,-0.00000833,0.00002543,-0.00001365,-0.00
 000271,-0.00359371,0.00400426,-0.00030407,0.00052623,0.00039016,0.0003
 7405,0.00533958,0.01121378,0.01446414,-0.00162258,0.00431241,0.0006290
 8,0.00003092,0.00185117,0.00041528,0.69679539,0.00055614,0.00110782,0.
 00062765,-0.00021487,0.00036093,-0.00027104,-0.00088484,-0.00041100,-0
 .00076902,-0.00136196,0.00026678,-0.00096124,-0.00009797,-0.00095684,-
 0.00038573,0.00009508,-0.00026005,0.00043798,0.00046293,0.00125124,0.0
 0064502,-0.00019043,-0.00020064,0.00007453,-0.00015595,-0.00006087,-0.
 00026053,0.00011417,-0.00023049,-0.00005264,0.00015735,0.00196484,0.00
 122299,0.00108334,-0.00035868,0.00049265,0.01801761,-0.05713604,-0.011
 14679,0.00186053,0.00208413,-0.00196602,0.00012551,-0.00203041,0.00268
 197,-0.26827161,0.61281434,0.00020666,0.00054339,0.00015449,-0.0000970
 2,0.00009139,-0.00008051,-0.00058903,-0.00066330,-0.00058747,-0.000483
 87,-0.00006668,-0.00029035,-0.00007703,-0.00046574,-0.00024890,0.00006
 667,-0.00012748,0.00026355,0.00020930,0.00064856,0.00026019,-0.0000873
 0,-0.00011114,0.00005302,-0.00007244,-0.00004648,-0.00011163,0.0000583
 7,-0.00012629,-0.00000906,-0.00201918,0.00348751,0.00017383,0.00066057
 ,-0.00003603,0.00072522,0.01757847,-0.01543388,-0.00569630,0.00156731,
 0.00018947,-0.00004189,-0.00244962,0.00308180,0.00232300,0.19819410,0.
 03718380,0.31819630,0.00003048,-0.00015947,-0.00005915,-0.00001465,-0.
 00001235,0.00002216,0.00014553,-0.00005987,0.00008804,0.00004616,0.000
 16677,0.00017131,0.00001147,0.00009066,0.00003344,-0.00003021,0.000032
 21,-0.00003650,0.00000284,-0.00014817,-0.00006934,0.00000226,0.0000295
 7,-0.00000429,-0.00000137,0.00001448,0.00002812,-0.00002682,0.00002791
 ,0.00000762,0.00046112,-0.00058857,-0.00017897,-0.00022647,0.00004380,
 -0.00007016,-0.00181780,0.00150625,-0.00025528,-0.00039710,-0.00007414
 ,0.00020450,-0.00002625,-0.00022279,-0.00009840,-0.17417536,-0.0119855
 0,-0.06387447,0.45383211,-0.00014033,-0.00019491,-0.00014978,0.0000412
 9,-0.00007663,0.00006094,0.00014379,-0.00015521,0.00002152,0.00021285,
 -0.00014066,0.00013418,0.00001917,0.00018779,0.00006888,-0.00000966,0.
 00005037,-0.00006614,-0.00009744,-0.00023993,-0.00014747,0.00003999,0.
 00003927,-0.00000838,0.00003164,0.00001048,0.00005559,-0.00001987,0.00
 004469,0.00001691,-0.00045288,0.00009984,-0.00039130,-0.00015313,0.000
 08021,-0.00003798,-0.00207250,-0.00287283,-0.00248929,-0.00013859,-0.0
 0023936,0.00006368,0.00003882,-0.00035261,-0.00007899,-0.01432984,-0.0
 6826141,-0.00303996,-0.00493509,0.40825072,-0.00007453,-0.00023010,-0.
 00006277,0.00003057,-0.00002479,0.00000720,0.00019083,-0.00008839,0.00
 005239,0.00016817,0.00007791,0.00010654,0.00002598,0.00015787,0.000070
 62,-0.00002090,0.00004712,-0.00009633,-0.00008085,-0.00023284,-0.00006
 138,0.00002889,0.00003971,-0.00002493,0.00002591,0.00002045,0.00003133
 ,-0.00001682,0.00004754,-0.00000284,-0.00011979,-0.00045218,-0.0000054
 3,-0.00014788,0.00010899,-0.00016222,-0.00191549,-0.00029382,-0.001627
 57,0.00020230,-0.00034333,-0.00027793,0.00002458,0.00025206,-0.0004429
 4,-0.06517612,-0.00159461,-0.12207475,0.04231846,0.00897772,0.41301575
 ,0.00000976,0.00005296,0.00003140,0.00000056,0.00001022,-0.00000971,-0
 .00005184,0.00003426,-0.00002141,-0.00002929,-0.00001778,-0.00004194,-
 0.00000542,-0.00004004,-0.00001577,0.00000928,-0.00001285,0.00001615,0
 .00000522,0.00005829,0.00003014,-0.00000354,-0.00001068,0.00000208,-0.
 00000180,-0.00000445,-0.00001174,0.00000954,-0.00001068,-0.00000315,-0
 .00006608,0.00017251,0.00007844,0.00008407,-0.00001692,0.00003391,0.00
 024996,-0.00133920,-0.00014431,0.00011784,-0.00033533,-0.00033093,-0.0
 0010628,-0.00030299,0.00005695,-0.04291368,0.00024886,0.00257055,-0.15
 743991,0.01225101,0.08384383,0.20065755,0.00003753,0.00002083,0.000031
 86,-0.00000941,0.00001577,-0.00001315,-0.00001825,0.00001420,0.0000022
 7,-0.00002850,0.00006079,-0.00000237,-0.00000568,-0.00003803,-0.000018
 51,0.00000050,-0.00000931,0.00001304,0.00002112,0.00004583,0.00003223,
 -0.00000900,-0.00000773,0.00000106,-0.00000707,-0.00000163,-0.00001153
 ,0.00000303,-0.00000869,-0.00000388,0.00019002,-0.00014809,0.00002535,
 0.00000791,-0.00001450,0.00000039,-0.00124777,-0.00015326,-0.00032463,
 0.00011304,-0.00028640,-0.00050119,-0.00026634,-0.00048213,0.00004247,
 -0.00067812,0.00628425,0.00273499,0.01334909,-0.03267185,-0.01008047,-
 0.01522686,0.03285440,0.00001646,0.00001415,-0.00000397,-0.00000732,-0
 .00000174,0.00000499,-0.00000074,-0.00000475,0.00000083,-0.00001154,0.
 00001402,0.00002137,-0.00000564,-0.00001364,-0.00001045,0.00000066,-0.
 00000346,0.00001265,0.00001341,0.00002056,-0.00000160,-0.00000412,-0.0
 0000350,0.00000389,-0.00000456,-0.00000247,-0.00000051,-0.00000099,-0.
 00000524,0.00000234,0.00010741,-0.00005768,-0.00007660,-0.00001714,-0.
 00001676,0.00001709,-0.00079438,0.00000957,0.00008087,0.00008771,-0.00
 005249,0.00008550,0.00006485,-0.00002590,0.00009630,-0.00818916,0.0008
 8431,0.01212656,0.08498941,-0.00957727,-0.08795873,-0.09900393,0.01197
 097,0.10088998,-0.00000336,-0.00000182,0.00000636,0.00000413,-0.000000
 98,-0.00000189,-0.00000468,-0.00000335,-0.00000650,0.00001673,-0.00000
 015,0.00000072,-0.00000239,-0.00000398,-0.00000402,0.00000305,-0.00000
 171,-0.00000086,-0.00000586,0.00000727,0.00000749,0.00000142,-0.000002
 31,-0.00000132,0.00000178,-0.00000114,-0.00000216,0.00000271,-0.000001
 49,-0.00000143,0.00000533,-0.00000970,0.00002350,0.00001486,-0.0000027
 8,-0.00000255,-0.00023487,0.00033526,-0.00003253,0.00001372,0.00005207
 ,-0.00003048,-0.00001858,0.00002553,0.00001275,-0.00849865,-0.02238356
 ,-0.01890854,-0.03391468,-0.00412615,-0.00238769,-0.00131136,0.0142328
 1,0.00988082,0.04160743,0.00001850,0.00004198,0.00002680,-0.00000737,0
 .00001108,-0.00001251,-0.00003728,-0.00000188,-0.00002212,-0.00003419,
 0.00000599,-0.00003300,-0.00000559,-0.00003920,-0.00001769,0.00000302,
 -0.00001039,0.00001330,0.00002004,0.00005353,0.00003308,-0.00000810,-0
 .00000964,0.00000119,-0.00000628,-0.00000330,-0.00001216,0.00000437,-0
 .00001056,-0.00000407,-0.00002598,0.00009959,0.00005198,0.00003446,-0.
 00000524,0.00001605,0.00029217,-0.00042864,-0.00005420,0.00001402,-0.0
 0003853,-0.00008708,-0.00003111,-0.00007551,-0.00001079,-0.01517647,-0
 .00467056,-0.01394562,-0.00779812,-0.17793978,-0.07364991,0.00565061,-
 0.00491536,-0.00781987,0.01352778,0.21141010,0.00001568,0.00003015,0.0
 0000155,-0.00000582,0.,0.00000094,-0.00002172,-0.00000276,-0.00001800,
 -0.00001637,-0.00000825,-0.00000029,-0.00000609,-0.00002405,-0.0000145
 0,0.00000282,-0.00000693,0.00001517,0.00001434,0.00003688,0.00000857,-
 0.00000519,-0.00000683,0.00000407,-0.00000468,-0.00000382,-0.00000419,
 0.00000162,-0.00000805,0.00000086,0.00001792,0.00006080,-0.00000036,0.
 00001451,-0.00001164,0.00002306,-0.00005063,-0.00002754,0.00002650,-0.
 00001406,-0.00000992,-0.00002369,-0.00004914,-0.00003339,0.00005190,-0
 .01543021,-0.01845167,-0.01366788,-0.00413102,-0.07138896,-0.06983438,
 0.00648630,-0.01439797,-0.00692144,0.01295209,0.09416480,0.08405830,-0
 .00000259,0.00002056,0.00001317,0.00000321,0.00000341,-0.00000540,-0.0
 0001712,0.00001073,-0.00000905,-0.00000180,-0.00000789,-0.00002300,-0.
 00000261,-0.00001435,-0.00000575,0.00000604,-0.00000553,0.00000368,-0.
 00000363,0.00002340,0.00001491,0.00000037,-0.00000500,-0.00000061,0.00
 000095,-0.00000206,-0.00000532,0.00000531,-0.00000432,-0.00000195,-0.0
 0007218,0.00006289,0.00005071,0.00004322,-0.00000626,0.00000752,0.0002
 8881,-0.00039654,-0.00043794,0.00012287,0.00001957,0.00005552,0.000016
 77,-0.00019948,0.00002712,-0.00666077,0.01511299,-0.02513820,-0.030994
 79,0.00342919,-0.00483833,-0.00121805,-0.01069041,0.01456083,0.0039277
 0,0.00039533,-0.00023865,0.03848754,0.00002795,-0.00000498,0.00001731,
 -0.00000652,0.00001009,-0.00001106,0.00001401,0.00000037,0.00000540,-0
 .00000920,0.00006533,0.00001547,-0.00000282,-0.00001805,-0.00000886,-0
 .00000265,-0.00000289,-0.00000107,0.00001247,0.00001716,0.00002439,-0.
 00000600,-0.00000303,-0.00000222,-0.00000424,0.00000051,-0.00000726,0.
 00000049,-0.00000313,-0.00000435,0.00014150,-0.00026115,0.00006974,-0.
 00001511,-0.00000016,-0.00003375,-0.00098595,0.00072754,-0.00088070,0.
 00008695,-0.00010348,-0.00027318,-0.00016013,-0.00027333,0.00008570,0.
 00992423,0.00460097,0.00896616,0.00402672,-0.12048383,0.09233103,-0.00
 296538,0.00170670,0.00454116,-0.00063610,-0.02334587,0.01076753,-0.006
 90008,0.14031769,0.00003756,0.00006557,0.00002295,-0.00001056,0.000011
 34,-0.00000439,-0.00005265,0.00003708,-0.00001942,-0.00004886,0.000005
 48,-0.00002146,-0.00000927,-0.00005386,-0.00002660,0.00000687,-0.00001
 654,0.00003301,0.00002639,0.00007746,0.00002301,-0.00001006,-0.0000133
 0,0.00000824,-0.00000882,-0.00000611,-0.00001102,0.00000577,-0.0000154
 7,0.00000094,0.00007181,0.00008342,0.00004457,0.00005407,-0.00003042,0
 .00005120,-0.00002221,-0.00089044,-0.00087639,0.00008049,-0.00026854,-
 0.00053576,-0.00021169,-0.00067377,0.00017299,-0.01712857,0.01460383,-
 0.02230343,-0.00525335,0.09081325,-0.12689172,0.00782246,0.01180588,-0
 .01353887,-0.00003412,-0.00054361,0.00628102,0.01419663,-0.11387901,0.
 15581315,0.00013671,-0.00015051,0.00009050,-0.00003415,0.00004050,0.00
 002263,0.00071914,-0.00084979,-0.00041684,-0.00131263,0.00042666,-0.00
 045344,-0.00002171,-0.00002246,-0.00002653,-0.00001254,0.00001412,0.00
 002290,0.00004415,-0.00001177,-0.00000430,-0.00001715,0.00000588,0.000
 00430,-0.00001770,0.00000521,0.00000125,-0.00001287,0.00000027,0.00000
 357,0.01216834,0.00124875,0.00578767,-0.00075715,-0.00148166,-0.001045
 84,-0.13373443,0.07353139,-0.02762449,-0.03197331,0.02532166,0.0030808
 9,-0.00813583,0.01509112,-0.00741090,-0.07029510,-0.04110875,-0.042036
 75,-0.00798047,-0.01888607,-0.02296939,0.00090750,0.00028042,0.0001331
 3,-0.00225970,0.00089782,-0.00121868,-0.00084794,-0.00055865,0.0001437
 0,0.24430706,-0.00024860,-0.00080362,-0.00018426,0.00021296,-0.0002526
 6,0.00027498,-0.00045814,-0.00065899,-0.00108983,-0.00021188,-0.000863
 13,-0.00045189,0.00008151,0.00076319,0.00040237,-0.00007287,0.00021766
 ,-0.00038192,-0.00037216,-0.00100670,-0.00054942,0.00016111,0.00016448
 ,-0.00006018,0.00012900,0.00004340,0.00021526,-0.00009478,0.00018639,0
 .00004309,0.01183448,-0.04643160,-0.01657456,-0.00213463,-0.00098089,-
 0.00189559,0.08597835,-0.10485741,0.01976404,0.01241420,-0.00697004,-0
 .00076975,0.01981485,-0.02271706,0.00817544,-0.06669320,-0.14536849,-0
 .09408200,-0.01750238,-0.00868860,-0.02182646,0.00207575,-0.00179926,-
 0.00122442,-0.00116909,0.00150854,-0.00018821,-0.00020770,-0.00315762,
 0.00032788,-0.10312832,0.46353758,-0.00002071,-0.00054164,-0.00007554,
 0.00011633,-0.00006572,0.00009075,-0.00014371,-0.00131637,-0.00005992,
 -0.00071708,0.00007421,-0.00104353,0.00004991,0.00038875,0.00019028,-0
 .00003272,0.00010674,-0.00022423,-0.00021020,-0.00051894,-0.00020015,0
 .00007636,0.00008095,-0.00004853,0.00006624,0.00003234,0.00008991,-0.0
 0004228,0.00010235,0.00000769,0.01069269,-0.02337512,-0.00019093,-0.00
 141300,-0.00134328,-0.00161400,-0.02163485,0.01223502,-0.04155758,0.00
 701219,-0.00763469,0.00306531,-0.01524631,0.02019586,-0.00489674,-0.05
 415086,-0.07819434,-0.10399906,-0.02230669,-0.02271183,-0.00998567,0.0
 0020922,-0.00102872,-0.00199090,-0.00218150,0.00108745,-0.00046098,0.0
 0108018,-0.00119040,0.00111899,0.07752082,0.13459760,0.15350043,0.0002
 0576,0.00021225,0.00012973,-0.00008230,0.00010135,-0.00005576,-0.00024
 244,-0.00009458,-0.00019794,-0.00042237,0.00024093,-0.00013917,-0.0000
 1176,-0.00019661,-0.00005787,-0.00000301,-0.00004936,0.00008858,0.0001
 4061,0.00022642,0.00012001,-0.00005282,-0.00002811,0.00001856,-0.00004
 701,-0.00000277,-0.00004867,0.00000986,-0.00004072,-0.00000806,-0.0003
 8102,0.00115949,0.00027700,0.00024790,0.00003359,0.00026007,0.00667401
 ,-0.00205904,-0.00016958,0.00072930,-0.00064845,-0.00021617,-0.0001104
 9,-0.00031645,0.00034421,-0.39501120,0.30881802,-0.06527855,-0.0474867
 1,0.02915397,-0.02911168,0.00109603,-0.00004799,-0.00181514,0.00065519
 ,0.00227245,0.00168689,-0.00308120,-0.00198144,0.00034425,-0.00086981,
 0.05959214,0.02127708,0.43804163,-0.00022285,-0.00045961,-0.00024404,0
 .00009982,-0.00015155,0.00012765,0.00057755,0.00028528,0.00050272,0.00
 052668,-0.00015228,0.00036952,0.00004163,0.00041637,0.00017703,-0.0000
 3743,0.00011471,-0.00019296,-0.00021154,-0.00054635,-0.00029258,0.0000
 8601,0.00008806,-0.00003119,0.00007028,0.00002542,0.00011633,-0.000048
 41,0.00010155,0.00002511,0.00255585,-0.00409955,-0.00038450,-0.0007775
 8,-0.00019146,-0.00062493,-0.01234138,0.00398348,-0.00836347,-0.000886
 39,-0.00056789,0.00052107,-0.00025858,0.00064588,-0.00111065,0.3343858
 5,-0.35078925,0.07121750,0.02419919,0.00355454,0.00675726,-0.00027127,
 -0.00046659,0.00135443,0.00016350,-0.00163606,-0.00049037,-0.00063853,
 0.00021126,-0.00144031,0.04933309,-0.12186613,-0.03098114,-0.39634392,
 0.47149987,-0.00000281,-0.00011572,0.00001556,0.00001067,0.00001131,-0
 .00000247,0.00012321,0.00007678,0.00012137,0.00002726,0.00013250,0.000
 01916,0.00001984,0.00008200,0.00005395,-0.00001639,0.00002391,-0.00005
 705,-0.00003664,-0.00013154,-0.00003000,0.00001439,0.00002468,-0.00001
 480,0.00001173,0.00001448,0.00001520,-0.00001068,0.00002785,-0.0000026
 6,0.00090034,-0.00123895,0.00007729,-0.00015748,-0.00003480,-0.0002109
 5,-0.00497203,-0.00197227,0.00138290,-0.00051278,0.00016624,-0.0000513
 7,0.00053318,-0.00061207,-0.00041109,-0.05316019,0.05519568,-0.0651641
 9,-0.03152623,0.00987486,0.00622544,-0.00159857,-0.00027825,-0.0028392
 0,0.00071184,0.00081807,0.00047365,0.00069380,-0.00053188,0.00065894,0
 .01639680,-0.02452199,0.00828437,0.07255010,-0.03701038,0.05145591\\-0
 .00000620,0.00000241,0.00000136,0.00000400,0.00000160,-0.00000320,-0.0
 0000353,0.00000477,-0.00000022,-0.00000422,-0.00000095,-0.00000300,-0.
 00001450,-0.00001447,0.00000644,0.00000430,-0.00000217,-0.00000398,0.0
 0000535,0.00000823,0.00001043,0.00000524,0.00000016,0.00000073,0.00000
 142,0.00000041,0.00000001,0.00000469,-0.00000234,0.00000114,0.00002179
 ,-0.00000788,-0.00000487,-0.00000748,0.00000077,0.00000264,0.00000276,
 -0.00002118,0.00001422,-0.00000188,0.00000372,-0.00000201,0.00000460,0
 .00000386,-0.00000295,-0.00001745,0.00001513,0.00000160,0.00000346,-0.
 00000669,0.00001176,0.00000269,0.00000091,-0.00000878,-0.00000198,0.00
 000176,0.00000120,-0.00000233,0.00000827,-0.00000430,-0.00000382,0.000
 00647,-0.00001859,0.00000310,-0.00000280,0.00000040\\\@


 A MAN BEGINS CUTTING HIS WISDOM TEETH THE 1ST
 TIME HE BITES OFF MORE THAN HE CAN CHEW.
 Job cpu time:       0 days  0 hours  0 minutes 20.3 seconds.
 File lengths (MBytes):  RWF=     65 Int=      0 D2E=      0 Chk=      9 Scr=      1
 Normal termination of Gaussian 09 at Wed Jul 22 15:57:16 2020.
