 Entering Gaussian System, Link 0=g09
 Input=dienophile_pm6_cpcmtoluene_1.com
 Output=dienophile_pm6_cpcmtoluene_1.log
 Initial command:
 /apps/applications/gaussian/G09.D01/2/default/g09/l1.exe "/local/645214.1.40core-192G.q/Gau-243470.inp" -scrdir="/local/645214.1.40core-192G.q/"
 Entering Link 1 = /apps/applications/gaussian/G09.D01/2/default/g09/l1.exe PID=    243471.
  
 Copyright (c) 1988,1990,1992,1993,1995,1998,2003,2009,2013,
            Gaussian, Inc.  All Rights Reserved.
  
 This is part of the Gaussian(R) 09 program.  It is based on
 the Gaussian(R) 03 system (copyright 2003, Gaussian, Inc.),
 the Gaussian(R) 98 system (copyright 1998, Gaussian, Inc.),
 the Gaussian(R) 94 system (copyright 1995, Gaussian, Inc.),
 the Gaussian 92(TM) system (copyright 1992, Gaussian, Inc.),
 the Gaussian 90(TM) system (copyright 1990, Gaussian, Inc.),
 the Gaussian 88(TM) system (copyright 1988, Gaussian, Inc.),
 the Gaussian 86(TM) system (copyright 1986, Carnegie Mellon
 University), and the Gaussian 82(TM) system (copyright 1983,
 Carnegie Mellon University). Gaussian is a federally registered
 trademark of Gaussian, Inc.
  
 This software contains proprietary and confidential information,
 including trade secrets, belonging to Gaussian, Inc.
  
 This software is provided under written license and may be
 used, copied, transmitted, or stored only in accord with that
 written license.
  
 The following legend is applicable only to US Government
 contracts under FAR:
  
                    RESTRICTED RIGHTS LEGEND
  
 Use, reproduction and disclosure by the US Government is
 subject to restrictions as set forth in subparagraphs (a)
 and (c) of the Commercial Computer Software - Restricted
 Rights clause in FAR 52.227-19.
  
 Gaussian, Inc.
 340 Quinnipiac St., Bldg. 40, Wallingford CT 06492
  
  
 ---------------------------------------------------------------
 Warning -- This program may not be used in any manner that
 competes with the business of Gaussian, Inc. or will provide
 assistance to any competitor of Gaussian, Inc.  The licensee
 of this program is prohibited from giving any competitor of
 Gaussian, Inc. access to this program.  By using this program,
 the user acknowledges that Gaussian, Inc. is engaged in the
 business of creating and licensing software in the field of
 computational chemistry and represents and warrants to the
 licensee that it is not a competitor of Gaussian, Inc. and that
 it will not use this program in any manner prohibited above.
 ---------------------------------------------------------------
  

 Cite this work as:
 Gaussian 09, Revision D.01,
 M. J. Frisch, G. W. Trucks, H. B. Schlegel, G. E. Scuseria, 
 M. A. Robb, J. R. Cheeseman, G. Scalmani, V. Barone, B. Mennucci, 
 G. A. Petersson, H. Nakatsuji, M. Caricato, X. Li, H. P. Hratchian, 
 A. F. Izmaylov, J. Bloino, G. Zheng, J. L. Sonnenberg, M. Hada, 
 M. Ehara, K. Toyota, R. Fukuda, J. Hasegawa, M. Ishida, T. Nakajima, 
 Y. Honda, O. Kitao, H. Nakai, T. Vreven, J. A. Montgomery, Jr., 
 J. E. Peralta, F. Ogliaro, M. Bearpark, J. J. Heyd, E. Brothers, 
 K. N. Kudin, V. N. Staroverov, T. Keith, R. Kobayashi, J. Normand, 
 K. Raghavachari, A. Rendell, J. C. Burant, S. S. Iyengar, J. Tomasi, 
 M. Cossi, N. Rega, J. M. Millam, M. Klene, J. E. Knox, J. B. Cross, 
 V. Bakken, C. Adamo, J. Jaramillo, R. Gomperts, R. E. Stratmann, 
 O. Yazyev, A. J. Austin, R. Cammi, C. Pomelli, J. W. Ochterski, 
 R. L. Martin, K. Morokuma, V. G. Zakrzewski, G. A. Voth, 
 P. Salvador, J. J. Dannenberg, S. Dapprich, A. D. Daniels, 
 O. Farkas, J. B. Foresman, J. V. Ortiz, J. Cioslowski, 
 and D. J. Fox, Gaussian, Inc., Wallingford CT, 2013.
 
 ******************************************
 Gaussian 09:  ES64L-G09RevD.01 24-Apr-2013
                23-Jul-2020 
 ******************************************
 %nprocshared=4
 Will use up to    4 processors via shared memory.
 %chk=dienophile_pm6_cpcmtoluene_1.chk
 ------------------------------------------------------------------
 # opt freq pm6 scrf=(cpcm,solvent=toluene) empiricaldispersion=gd3
 ------------------------------------------------------------------
 1/14=-1,18=20,19=15,26=1,38=1/1,3;
 2/9=110,12=2,17=6,18=5,40=1/2;
 3/5=2,16=1,25=1,41=3900000,70=2101,71=1,72=13,124=31/1,2,3;
 4/35=1/1;
 5/5=2,35=1,38=5,53=13/2;
 6/7=2,8=2,9=2,10=2,28=1/1;
 7//1,2,3,16;
 1/14=-1,18=20,19=15,26=1/3(2);
 2/9=110/2;
 99//99;
 2/9=110/2;
 3/5=2,16=1,25=1,41=3900000,70=2105,71=1,72=13,124=31,135=20/1,2,3;
 4/5=5,16=3,35=1/1;
 5/5=2,35=1,38=5,53=13/2;
 7//1,2,3,16;
 1/14=-1,18=20,19=15,26=1/3(-5);
 2/9=110/2;
 6/7=2,8=2,9=2,10=2,19=2,28=1/1;
 99/9=1/99;
 -------------------
 Title Card Required
 -------------------
 Symbolic Z-matrix:
 Charge =  0 Multiplicity = 1
 C                     0.0027   -0.21493  -1.18242 
 C                     0.00998  -1.64301  -0.66872 
 C                     0.00998  -1.64301   0.66872 
 C                     0.0027   -0.21493   1.18242 
 H                     0.01451  -2.47189  -1.36243 
 H                     0.01451  -2.47189   1.36243 
 C                    -0.02455   2.07276   0. 
 H                     0.37592   2.46382   0.95264 
 H                     0.59193   2.46766  -0.82756 
 H                    -1.05648   2.44731  -0.1244 
 N                     0.00165   0.59964   0. 
 O                     0.0027    0.20164   2.31119 
 O                     0.0027    0.20164  -2.31119 
 

 GradGradGradGradGradGradGradGradGradGradGradGradGradGradGradGradGradGrad
 Berny optimization.
 Initialization pass.
                           ----------------------------
                           !    Initial Parameters    !
                           ! (Angstroms and Degrees)  !
 --------------------------                            --------------------------
 ! Name  Definition              Value          Derivative Info.                !
 --------------------------------------------------------------------------------
 ! R1    R(1,2)                  1.5177         estimate D2E/DX2                !
 ! R2    R(1,11)                 1.4358         estimate D2E/DX2                !
 ! R3    R(1,13)                 1.2032         estimate D2E/DX2                !
 ! R4    R(2,3)                  1.3374         estimate D2E/DX2                !
 ! R5    R(2,5)                  1.0809         estimate D2E/DX2                !
 ! R6    R(3,4)                  1.5177         estimate D2E/DX2                !
 ! R7    R(3,6)                  1.0809         estimate D2E/DX2                !
 ! R8    R(4,11)                 1.4358         estimate D2E/DX2                !
 ! R9    R(4,12)                 1.2032         estimate D2E/DX2                !
 ! R10   R(7,8)                  1.1049         estimate D2E/DX2                !
 ! R11   R(7,9)                  1.1049         estimate D2E/DX2                !
 ! R12   R(7,10)                 1.1048         estimate D2E/DX2                !
 ! R13   R(7,11)                 1.4733         estimate D2E/DX2                !
 ! A1    A(2,1,11)             104.7785         estimate D2E/DX2                !
 ! A2    A(2,1,13)             130.04           estimate D2E/DX2                !
 ! A3    A(11,1,13)            125.1809         estimate D2E/DX2                !
 ! A4    A(1,2,3)              109.7842         estimate D2E/DX2                !
 ! A5    A(1,2,5)              120.2892         estimate D2E/DX2                !
 ! A6    A(3,2,5)              129.9265         estimate D2E/DX2                !
 ! A7    A(2,3,4)              109.7842         estimate D2E/DX2                !
 ! A8    A(2,3,6)              129.9265         estimate D2E/DX2                !
 ! A9    A(4,3,6)              120.2892         estimate D2E/DX2                !
 ! A10   A(3,4,11)             104.7785         estimate D2E/DX2                !
 ! A11   A(3,4,12)             130.04           estimate D2E/DX2                !
 ! A12   A(11,4,12)            125.1809         estimate D2E/DX2                !
 ! A13   A(8,7,9)              108.4841         estimate D2E/DX2                !
 ! A14   A(8,7,10)             108.3985         estimate D2E/DX2                !
 ! A15   A(8,7,11)             110.33           estimate D2E/DX2                !
 ! A16   A(9,7,10)             108.3985         estimate D2E/DX2                !
 ! A17   A(9,7,11)             110.33           estimate D2E/DX2                !
 ! A18   A(10,7,11)            110.8285         estimate D2E/DX2                !
 ! A19   A(1,11,4)             110.874          estimate D2E/DX2                !
 ! A20   A(1,11,7)             124.5577         estimate D2E/DX2                !
 ! A21   A(4,11,7)             124.5577         estimate D2E/DX2                !
 ! D1    D(11,1,2,3)             0.1278         estimate D2E/DX2                !
 ! D2    D(11,1,2,5)          -179.8533         estimate D2E/DX2                !
 ! D3    D(13,1,2,3)           179.868          estimate D2E/DX2                !
 ! D4    D(13,1,2,5)            -0.1131         estimate D2E/DX2                !
 ! D5    D(2,1,11,4)            -0.212          estimate D2E/DX2                !
 ! D6    D(2,1,11,7)          -179.0648         estimate D2E/DX2                !
 ! D7    D(13,1,11,4)         -179.9686         estimate D2E/DX2                !
 ! D8    D(13,1,11,7)            1.1785         estimate D2E/DX2                !
 ! D9    D(1,2,3,4)              0.0            estimate D2E/DX2                !
 ! D10   D(1,2,3,6)           -179.9787         estimate D2E/DX2                !
 ! D11   D(5,2,3,4)            179.9787         estimate D2E/DX2                !
 ! D12   D(5,2,3,6)              0.0            estimate D2E/DX2                !
 ! D13   D(2,3,4,11)            -0.1278         estimate D2E/DX2                !
 ! D14   D(2,3,4,12)          -179.868          estimate D2E/DX2                !
 ! D15   D(6,3,4,11)           179.8533         estimate D2E/DX2                !
 ! D16   D(6,3,4,12)             0.1131         estimate D2E/DX2                !
 ! D17   D(3,4,11,1)             0.212          estimate D2E/DX2                !
 ! D18   D(3,4,11,7)           179.0648         estimate D2E/DX2                !
 ! D19   D(12,4,11,1)          179.9686         estimate D2E/DX2                !
 ! D20   D(12,4,11,7)           -1.1785         estimate D2E/DX2                !
 ! D21   D(8,7,11,1)          -157.4986         estimate D2E/DX2                !
 ! D22   D(8,7,11,4)            23.803          estimate D2E/DX2                !
 ! D23   D(9,7,11,1)           -37.6416         estimate D2E/DX2                !
 ! D24   D(9,7,11,4)           143.66           estimate D2E/DX2                !
 ! D25   D(10,7,11,1)           82.4299         estimate D2E/DX2                !
 ! D26   D(10,7,11,4)          -96.2685         estimate D2E/DX2                !
 --------------------------------------------------------------------------------
 Trust Radius=3.00D-01 FncErr=1.00D-07 GrdErr=1.00D-07
 Number of steps in this run=     70 maximum allowed number of steps=    100.
 GradGradGradGradGradGradGradGradGradGradGradGradGradGradGradGradGradGrad

                          Input orientation:                          
 ---------------------------------------------------------------------
 Center     Atomic      Atomic             Coordinates (Angstroms)
 Number     Number       Type             X           Y           Z
 ---------------------------------------------------------------------
      1          6           0        0.002701   -0.214927   -1.182421
      2          6           0        0.009976   -1.643008   -0.668717
      3          6           0        0.009976   -1.643008    0.668717
      4          6           0        0.002701   -0.214927    1.182421
      5          1           0        0.014507   -2.471891   -1.362433
      6          1           0        0.014507   -2.471891    1.362433
      7          6           0       -0.024549    2.072757    0.000000
      8          1           0        0.375924    2.463816    0.952645
      9          1           0        0.591927    2.467657   -0.827557
     10          1           0       -1.056476    2.447314   -0.124402
     11          7           0        0.001648    0.599644    0.000000
     12          8           0        0.002701    0.201635    2.311191
     13          8           0        0.002701    0.201635   -2.311191
 ---------------------------------------------------------------------
                    Distance matrix (angstroms):
                    1          2          3          4          5
     1  C    0.000000
     2  C    1.517682   0.000000
     3  C    2.337986   1.337434   0.000000
     4  C    2.364842   2.337986   1.517682   0.000000
     5  H    2.264162   1.080884   2.193773   3.401516   0.000000
     6  H    3.401516   2.193773   1.080884   2.264162   2.724866
     7  C    2.575337   3.775617   3.775617   2.575337   4.744636
     8  H    3.445790   4.430433   4.132861   2.714361   5.463645
     9  H    2.769364   4.154692   4.413057   3.403448   5.001864
    10  H    3.054306   4.261963   4.300824   3.149154   5.184429
    11  N    1.435843   2.340244   2.340244   1.435843   3.360166
    12  O    3.518359   3.504656   2.469915   1.203181   4.543500
    13  O    1.203181   2.469915   3.504656   3.518359   2.836904
                    6          7          8          9         10
     6  H    0.000000
     7  C    4.744636   0.000000
     8  H    4.965859   1.104916   0.000000
     9  H    5.434023   1.104916   1.793262   0.000000
    10  H    5.249405   1.104827   1.792226   1.792226   0.000000
    11  N    3.360166   1.473346   2.126676   2.126676   2.132835
    12  O    2.836904   2.973793   2.665034   3.915837   3.478080
    13  O    4.543500   2.973793   3.988657   2.771861   3.308622
                   11         12         13
    11  N    0.000000
    12  O    2.345211   0.000000
    13  O    2.345211   4.622382   0.000000
 Stoichiometry    C5H5NO2
 Framework group  C1[X(C5H5NO2)]
 Deg. of freedom    33
 Full point group                 C1      NOp   1
 Largest Abelian subgroup         C1      NOp   1
 Largest concise Abelian subgroup C1      NOp   1
                         Standard orientation:                         
 ---------------------------------------------------------------------
 Center     Atomic      Atomic             Coordinates (Angstroms)
 Number     Number       Type             X           Y           Z
 ---------------------------------------------------------------------
      1          6           0       -1.182439   -0.214910   -0.000888
      2          6           0       -0.668774   -1.643015    0.003866
      3          6           0        0.668660   -1.643052    0.003862
      4          6           0        1.182403   -0.214975   -0.000894
      5          1           0       -1.362513   -2.471888    0.006319
      6          1           0        1.362353   -2.471963    0.006312
      7          6           0        0.000045    2.072890    0.007087
      8          1           0        0.952700    2.460536   -0.396669
      9          1           0       -0.827502    2.462606   -0.612691
     10          1           0       -0.124343    2.456130    1.035823
     11          7           0        0.000005    0.599609   -0.006700
     12          8           0        2.311185    0.201542   -0.004406
     13          8           0       -2.311197    0.201669   -0.004394
 ---------------------------------------------------------------------
 Rotational constants (GHZ):      3.2401669      2.2749787      1.3481131
 Standard basis: VSTO-6G (5D, 7F)
 There are    37 symmetry adapted cartesian basis functions of A   symmetry.
 There are    37 symmetry adapted basis functions of A   symmetry.
    37 basis functions,   222 primitive gaussians,    37 cartesian basis functions
    21 alpha electrons       21 beta electrons
       nuclear repulsion energy       212.6202338807 Hartrees.
 Integral buffers will be    131072 words long.
 Regular integral format.
 Two-electron integral symmetry is turned off.
 Nuclear repulsion after empirical dispersion term =      212.6176244080 Hartrees.
 ------------------------------------------------------------------------------
 Polarizable Continuum Model (PCM)
 =================================
 Model                : C-PCM.
 Atomic radii         : UFF (Universal Force Field).
 Polarization charges : Total charges.
 Charge compensation  : None.
 Solution method      : On-the-fly selection.
 Cavity type          : Scaled VdW (van der Waals Surface) (Alpha=1.100).
 Cavity algorithm     : GePol (No added spheres)
                        Default sphere list used, NSphG=   13.
                        Lebedev-Laikov grids with approx.  5.0 points / Ang**2.
                        Smoothing algorithm: Karplus/York (Gamma=1.0000).
                        Polarization charges: spherical gaussians, with
                                              point-specific exponents (IZeta= 3).
                        Self-potential: point-specific (ISelfS= 7).
                        Self-field    : sphere-specific E.n sum rule (ISelfD= 2).
 1st derivatives      : Analytical E(r).r(x)/FMM algorithm (CHGder, D1EAlg=3).
                        Cavity 1st derivative terms included.
 Solvent              : Toluene, Eps=   2.374100 Eps(inf)=   2.238315
 ------------------------------------------------------------------------------
 Spheres list:
 ISph  on   Nord     Re0    Alpha      Xe            Ye            Ze
    1   C      1    1.9255  1.100     -1.182439     -0.214910     -0.000888
    2   C      2    1.9255  1.100     -0.668774     -1.643015      0.003866
    3   C      3    1.9255  1.100      0.668660     -1.643052      0.003862
    4   C      4    1.9255  1.100      1.182403     -0.214975     -0.000894
    5   H      5    1.4430  1.100     -1.362513     -2.471888      0.006319
    6   H      6    1.4430  1.100      1.362353     -2.471963      0.006312
    7   C      7    1.9255  1.100      0.000045      2.072890      0.007087
    8   H      8    1.4430  1.100      0.952700      2.460536     -0.396669
    9   H      9    1.4430  1.100     -0.827502      2.462606     -0.612691
   10   H     10    1.4430  1.100     -0.124343      2.456130      1.035823
   11   N     11    1.8300  1.100      0.000005      0.599609     -0.006700
   12   O     12    1.7500  1.100      2.311185      0.201542     -0.004406
   13   O     13    1.7500  1.100     -2.311197      0.201669     -0.004394
 ------------------------------------------------------------------------------
 Do NDO integrals.
 One-electron integrals computed using PRISM.
 NBasis=    37 RedAO= F EigKep=  0.00D+00  NBF=    37
 NBsUse=    37 1.00D-04 EigRej=  0.00D+00 NBFU=    37
 Simple Huckel Guess.
 Overlap will be assumed to be unity.
 Keep J ints in memory in canonical form, NReq=4851297.
 Requested convergence on RMS density matrix=1.00D-08 within 128 cycles.
 Requested convergence on MAX density matrix=1.00D-06.
 Requested convergence on             energy=1.00D-06.
 No special actions if energy rises.
 Inv3:  Mode=1 IEnd=     4961388.
 Iteration    1 A*A^-1 deviation from unit magnitude is 6.44D-15 for   1273.
 Iteration    1 A*A^-1 deviation from orthogonality  is 1.55D-15 for   1146    111.
 Iteration    1 A^-1*A deviation from unit magnitude is 6.44D-15 for   1273.
 Iteration    1 A^-1*A deviation from orthogonality  is 9.56D-16 for   1273   1262.
 Error on total polarization charges = -0.00024
 SCF Done:  E(RPM6D3) = -0.897356748666E-01 A.U. after   14 cycles
            NFock= 13  Conv=0.67D-08     -V/T= 0.9963

 **********************************************************************

            Population analysis using the SCF density.

 **********************************************************************

 Orbital symmetries:
       Occupied  (A) (A) (A) (A) (A) (A) (A) (A) (A) (A) (A) (A)
                 (A) (A) (A) (A) (A) (A) (A) (A) (A)
       Virtual   (A) (A) (A) (A) (A) (A) (A) (A) (A) (A) (A) (A)
                 (A) (A) (A) (A)
 The electronic state is 1-A.
 Alpha  occ. eigenvalues --   -1.24063  -1.20573  -1.17576  -1.06578  -0.91717
 Alpha  occ. eigenvalues --   -0.88682  -0.78357  -0.74890  -0.64653  -0.62919
 Alpha  occ. eigenvalues --   -0.61155  -0.58413  -0.56804  -0.55818  -0.53773
 Alpha  occ. eigenvalues --   -0.53411  -0.51076  -0.44083  -0.43870  -0.40315
 Alpha  occ. eigenvalues --   -0.38916
 Alpha virt. eigenvalues --   -0.05770   0.01687   0.02567   0.03221   0.07813
 Alpha virt. eigenvalues --    0.08021   0.12135   0.12539   0.14454   0.16718
 Alpha virt. eigenvalues --    0.17053   0.18638   0.18657   0.18795   0.19182
 Alpha virt. eigenvalues --    0.21201
          Condensed to atoms (all electrons):
               1          2          3          4          5          6
     1  C    3.391908   0.000000   0.000000   0.000000   0.000000   0.000000
     2  C    0.000000   4.215680   0.000000   0.000000   0.000000   0.000000
     3  C    0.000000   0.000000   4.215540   0.000000   0.000000   0.000000
     4  C    0.000000   0.000000   0.000000   3.392120   0.000000   0.000000
     5  H    0.000000   0.000000   0.000000   0.000000   0.798129   0.000000
     6  H    0.000000   0.000000   0.000000   0.000000   0.000000   0.798146
     7  C    0.000000   0.000000   0.000000   0.000000   0.000000   0.000000
     8  H    0.000000   0.000000   0.000000   0.000000   0.000000   0.000000
     9  H    0.000000   0.000000   0.000000   0.000000   0.000000   0.000000
    10  H    0.000000   0.000000   0.000000   0.000000   0.000000   0.000000
    11  N    0.000000   0.000000   0.000000   0.000000   0.000000   0.000000
    12  O    0.000000   0.000000   0.000000   0.000000   0.000000   0.000000
    13  O    0.000000   0.000000   0.000000   0.000000   0.000000   0.000000
               7          8          9         10         11         12
     1  C    0.000000   0.000000   0.000000   0.000000   0.000000   0.000000
     2  C    0.000000   0.000000   0.000000   0.000000   0.000000   0.000000
     3  C    0.000000   0.000000   0.000000   0.000000   0.000000   0.000000
     4  C    0.000000   0.000000   0.000000   0.000000   0.000000   0.000000
     5  H    0.000000   0.000000   0.000000   0.000000   0.000000   0.000000
     6  H    0.000000   0.000000   0.000000   0.000000   0.000000   0.000000
     7  C    4.250877   0.000000   0.000000   0.000000   0.000000   0.000000
     8  H    0.000000   0.831778   0.000000   0.000000   0.000000   0.000000
     9  H    0.000000   0.000000   0.834609   0.000000   0.000000   0.000000
    10  H    0.000000   0.000000   0.000000   0.842427   0.000000   0.000000
    11  N    0.000000   0.000000   0.000000   0.000000   5.490990   0.000000
    12  O    0.000000   0.000000   0.000000   0.000000   0.000000   6.469218
    13  O    0.000000   0.000000   0.000000   0.000000   0.000000   0.000000
              13
     1  C    0.000000
     2  C    0.000000
     3  C    0.000000
     4  C    0.000000
     5  H    0.000000
     6  H    0.000000
     7  C    0.000000
     8  H    0.000000
     9  H    0.000000
    10  H    0.000000
    11  N    0.000000
    12  O    0.000000
    13  O    6.468577
 Mulliken charges:
               1
     1  C    0.608092
     2  C   -0.215680
     3  C   -0.215540
     4  C    0.607880
     5  H    0.201871
     6  H    0.201854
     7  C   -0.250877
     8  H    0.168222
     9  H    0.165391
    10  H    0.157573
    11  N   -0.490990
    12  O   -0.469218
    13  O   -0.468577
 Sum of Mulliken charges =   0.00000
 Mulliken charges with hydrogens summed into heavy atoms:
               1
     1  C    0.608092
     2  C   -0.013808
     3  C   -0.013687
     4  C    0.607880
     7  C    0.240308
    11  N   -0.490990
    12  O   -0.469218
    13  O   -0.468577
 Charge=              0.0000 electrons
 Dipole moment (field-independent basis, Debye):
    X=              0.0100    Y=             -1.3802    Z=              0.0134  Tot=              1.3803
 N-N= 2.126176244080D+02 E-N=-3.711574441654D+02  KE=-2.451442511925D+01
 D1PCM: C-PCM CHGder 1st derivatives, ID1Alg=3 FixD1E=F DoIter=F DoCFld=F I1PDM=0.
 Calling FoFJK, ICntrl=      2127 FMM=F ISym2X=0 I1Cent= 0 IOpClX= 0 NMat=1 NMatS=1 NMatT=0.
 ***** Axes restored to original set *****
 -------------------------------------------------------------------
 Center     Atomic                   Forces (Hartrees/Bohr)
 Number     Number              X              Y              Z
 -------------------------------------------------------------------
      1        6           0.000043346    0.000090944   -0.000116235
      2        6          -0.000021643    0.000030396   -0.000046509
      3        6          -0.000020617    0.000036800    0.000072732
      4        6           0.000029255   -0.000186137   -0.000132441
      5        1           0.000009600   -0.000004468    0.000002084
      6        1           0.000009596   -0.000004970   -0.000000669
      7        6           0.000017733    0.000020763   -0.000242133
      8        1           0.000014874   -0.000057014    0.000030107
      9        1          -0.000026154    0.000055006    0.000040744
     10        1           0.000025729   -0.000030636    0.000002060
     11        7          -0.000048886    0.000025954    0.000269236
     12        8          -0.000010854    0.000074486    0.000035726
     13        8          -0.000021979   -0.000051124    0.000085299
 -------------------------------------------------------------------
 Cartesian Forces:  Max     0.000269236 RMS     0.000080249

 GradGradGradGradGradGradGradGradGradGradGradGradGradGradGradGradGradGrad
 Berny optimization.
 FormGI is forming the generalized inverse of G from B-inverse, IUseBI=4.
 Internal  Forces:  Max     0.000129897 RMS     0.000040341
 Search for a local minimum.
 Step number   1 out of a maximum of   70
 All quantities printed in internal units (Hartrees-Bohrs-Radians)
 Mixed Optimization -- En-DIIS/RFO-DIIS
 Second derivative matrix not updated -- first step.
 ITU=  0
     Eigenvalues ---    0.00722   0.00790   0.00844   0.00909   0.01100
     Eigenvalues ---    0.01521   0.01656   0.02189   0.07282   0.07339
     Eigenvalues ---    0.16000   0.16000   0.16000   0.16000   0.16000
     Eigenvalues ---    0.22680   0.24789   0.24992   0.25000   0.25000
     Eigenvalues ---    0.29541   0.30394   0.33144   0.33144   0.33154
     Eigenvalues ---    0.35343   0.35888   0.35888   0.37974   0.39345
     Eigenvalues ---    0.55231   1.03241   1.03241
 RFO step:  Lambda=-5.23490243D-07 EMin= 7.21554422D-03
 Linear search not attempted -- first point.
 Iteration  1 RMS(Cart)=  0.00034556 RMS(Int)=  0.00000020
 Iteration  2 RMS(Cart)=  0.00000018 RMS(Int)=  0.00000012
 Variable       Old X    -DE/DX   Delta X   Delta X   Delta X     New X
                                 (Linear)    (Quad)   (Total)
    R1        2.86800  -0.00001   0.00000  -0.00001  -0.00001   2.86799
    R2        2.71335   0.00000   0.00000  -0.00001  -0.00001   2.71335
    R3        2.27368  -0.00010   0.00000  -0.00009  -0.00009   2.27359
    R4        2.52738   0.00004   0.00000   0.00008   0.00008   2.52746
    R5        2.04257   0.00000   0.00000   0.00001   0.00001   2.04258
    R6        2.86800  -0.00006   0.00000  -0.00019  -0.00019   2.86782
    R7        2.04257   0.00000   0.00000   0.00001   0.00001   2.04258
    R8        2.71335  -0.00002   0.00000  -0.00006  -0.00006   2.71329
    R9        2.27368   0.00006   0.00000   0.00006   0.00006   2.27374
   R10        2.08799   0.00001   0.00000   0.00003   0.00003   2.08802
   R11        2.08799  -0.00003   0.00000  -0.00008  -0.00008   2.08791
   R12        2.08782  -0.00003   0.00000  -0.00010  -0.00010   2.08772
   R13        2.78422  -0.00001   0.00000  -0.00004  -0.00004   2.78419
    A1        1.82873  -0.00001   0.00000  -0.00005  -0.00005   1.82868
    A2        2.26963  -0.00001   0.00000  -0.00006  -0.00006   2.26957
    A3        2.18482   0.00003   0.00000   0.00011   0.00011   2.18493
    A4        1.91610   0.00001   0.00000   0.00006   0.00006   1.91615
    A5        2.09944   0.00000   0.00000   0.00000   0.00000   2.09944
    A6        2.26765  -0.00001   0.00000  -0.00006  -0.00006   2.26759
    A7        1.91610  -0.00002   0.00000  -0.00010  -0.00010   1.91600
    A8        2.26765   0.00001   0.00000   0.00003   0.00003   2.26767
    A9        2.09944   0.00002   0.00000   0.00007   0.00007   2.09952
   A10        1.82873   0.00003   0.00000   0.00013   0.00013   1.82886
   A11        2.26963   0.00005   0.00000   0.00020   0.00020   2.26983
   A12        2.18482  -0.00008   0.00000  -0.00032  -0.00032   2.18450
   A13        1.89340   0.00000   0.00000   0.00001   0.00001   1.89341
   A14        1.89191   0.00004   0.00000   0.00007   0.00007   1.89198
   A15        1.92562  -0.00012   0.00000  -0.00081  -0.00081   1.92481
   A16        1.89191  -0.00002   0.00000   0.00003   0.00003   1.89195
   A17        1.92562   0.00013   0.00000   0.00092   0.00092   1.92654
   A18        1.93432  -0.00003   0.00000  -0.00021  -0.00021   1.93411
   A19        1.93512   0.00000   0.00000  -0.00003  -0.00003   1.93508
   A20        2.17394  -0.00012   0.00000  -0.00045  -0.00045   2.17349
   A21        2.17394   0.00012   0.00000   0.00049   0.00049   2.17443
    D1        0.00223   0.00000   0.00000  -0.00033  -0.00033   0.00190
    D2       -3.13903   0.00000   0.00000  -0.00004  -0.00004  -3.13908
    D3        3.13929   0.00001   0.00000   0.00121   0.00121   3.14050
    D4       -0.00197   0.00001   0.00000   0.00150   0.00150  -0.00047
    D5       -0.00370   0.00001   0.00000   0.00052   0.00052  -0.00318
    D6       -3.12527   0.00000   0.00000   0.00032   0.00032  -3.12495
    D7       -3.14105  -0.00001   0.00000  -0.00093  -0.00093   3.14121
    D8        0.02057  -0.00001   0.00000  -0.00113  -0.00113   0.01944
    D9        0.00000   0.00000   0.00000   0.00003   0.00003   0.00003
   D10       -3.14122   0.00001   0.00000   0.00034   0.00034  -3.14088
   D11        3.14122   0.00000   0.00000  -0.00030  -0.00030   3.14092
   D12        0.00000   0.00000   0.00000   0.00001   0.00001   0.00001
   D13       -0.00223   0.00000   0.00000   0.00028   0.00028  -0.00195
   D14       -3.13929   0.00000   0.00000  -0.00065  -0.00065  -3.13994
   D15        3.13903   0.00000   0.00000   0.00001   0.00001   3.13904
   D16        0.00197  -0.00001   0.00000  -0.00093  -0.00093   0.00105
   D17        0.00370   0.00000   0.00000  -0.00050  -0.00050   0.00320
   D18        3.12527   0.00000   0.00000  -0.00032  -0.00032   3.12495
   D19        3.14105   0.00000   0.00000   0.00038   0.00038   3.14142
   D20       -0.02057   0.00000   0.00000   0.00056   0.00056  -0.02001
   D21       -2.74887  -0.00002   0.00000  -0.00033  -0.00033  -2.74920
   D22        0.41544  -0.00002   0.00000  -0.00055  -0.00055   0.41489
   D23       -0.65697  -0.00001   0.00000  -0.00026  -0.00026  -0.65723
   D24        2.50734  -0.00001   0.00000  -0.00048  -0.00048   2.50686
   D25        1.43867   0.00003   0.00000   0.00025   0.00025   1.43892
   D26       -1.68020   0.00002   0.00000   0.00003   0.00003  -1.68017
         Item               Value     Threshold  Converged?
 Maximum Force            0.000130     0.000450     YES
 RMS     Force            0.000040     0.000300     YES
 Maximum Displacement     0.001230     0.001800     YES
 RMS     Displacement     0.000346     0.001200     YES
 Predicted change in Energy=-2.617324D-07
 Optimization completed.
    -- Stationary point found.
                           ----------------------------
                           !   Optimized Parameters   !
                           ! (Angstroms and Degrees)  !
 --------------------------                            --------------------------
 ! Name  Definition              Value          Derivative Info.                !
 --------------------------------------------------------------------------------
 ! R1    R(1,2)                  1.5177         -DE/DX =    0.0                 !
 ! R2    R(1,11)                 1.4358         -DE/DX =    0.0                 !
 ! R3    R(1,13)                 1.2032         -DE/DX =   -0.0001              !
 ! R4    R(2,3)                  1.3374         -DE/DX =    0.0                 !
 ! R5    R(2,5)                  1.0809         -DE/DX =    0.0                 !
 ! R6    R(3,4)                  1.5177         -DE/DX =   -0.0001              !
 ! R7    R(3,6)                  1.0809         -DE/DX =    0.0                 !
 ! R8    R(4,11)                 1.4358         -DE/DX =    0.0                 !
 ! R9    R(4,12)                 1.2032         -DE/DX =    0.0001              !
 ! R10   R(7,8)                  1.1049         -DE/DX =    0.0                 !
 ! R11   R(7,9)                  1.1049         -DE/DX =    0.0                 !
 ! R12   R(7,10)                 1.1048         -DE/DX =    0.0                 !
 ! R13   R(7,11)                 1.4733         -DE/DX =    0.0                 !
 ! A1    A(2,1,11)             104.7785         -DE/DX =    0.0                 !
 ! A2    A(2,1,13)             130.04           -DE/DX =    0.0                 !
 ! A3    A(11,1,13)            125.1809         -DE/DX =    0.0                 !
 ! A4    A(1,2,3)              109.7842         -DE/DX =    0.0                 !
 ! A5    A(1,2,5)              120.2892         -DE/DX =    0.0                 !
 ! A6    A(3,2,5)              129.9265         -DE/DX =    0.0                 !
 ! A7    A(2,3,4)              109.7842         -DE/DX =    0.0                 !
 ! A8    A(2,3,6)              129.9265         -DE/DX =    0.0                 !
 ! A9    A(4,3,6)              120.2892         -DE/DX =    0.0                 !
 ! A10   A(3,4,11)             104.7785         -DE/DX =    0.0                 !
 ! A11   A(3,4,12)             130.04           -DE/DX =    0.0                 !
 ! A12   A(11,4,12)            125.1809         -DE/DX =   -0.0001              !
 ! A13   A(8,7,9)              108.4841         -DE/DX =    0.0                 !
 ! A14   A(8,7,10)             108.3985         -DE/DX =    0.0                 !
 ! A15   A(8,7,11)             110.33           -DE/DX =   -0.0001              !
 ! A16   A(9,7,10)             108.3985         -DE/DX =    0.0                 !
 ! A17   A(9,7,11)             110.33           -DE/DX =    0.0001              !
 ! A18   A(10,7,11)            110.8285         -DE/DX =    0.0                 !
 ! A19   A(1,11,4)             110.874          -DE/DX =    0.0                 !
 ! A20   A(1,11,7)             124.5577         -DE/DX =   -0.0001              !
 ! A21   A(4,11,7)             124.5577         -DE/DX =    0.0001              !
 ! D1    D(11,1,2,3)             0.1278         -DE/DX =    0.0                 !
 ! D2    D(11,1,2,5)          -179.8533         -DE/DX =    0.0                 !
 ! D3    D(13,1,2,3)           179.868          -DE/DX =    0.0                 !
 ! D4    D(13,1,2,5)            -0.1131         -DE/DX =    0.0                 !
 ! D5    D(2,1,11,4)            -0.212          -DE/DX =    0.0                 !
 ! D6    D(2,1,11,7)          -179.0648         -DE/DX =    0.0                 !
 ! D7    D(13,1,11,4)          180.0314         -DE/DX =    0.0                 !
 ! D8    D(13,1,11,7)            1.1785         -DE/DX =    0.0                 !
 ! D9    D(1,2,3,4)              0.0            -DE/DX =    0.0                 !
 ! D10   D(1,2,3,6)           -179.9787         -DE/DX =    0.0                 !
 ! D11   D(5,2,3,4)            179.9787         -DE/DX =    0.0                 !
 ! D12   D(5,2,3,6)              0.0            -DE/DX =    0.0                 !
 ! D13   D(2,3,4,11)            -0.1278         -DE/DX =    0.0                 !
 ! D14   D(2,3,4,12)          -179.868          -DE/DX =    0.0                 !
 ! D15   D(6,3,4,11)           179.8533         -DE/DX =    0.0                 !
 ! D16   D(6,3,4,12)             0.1131         -DE/DX =    0.0                 !
 ! D17   D(3,4,11,1)             0.212          -DE/DX =    0.0                 !
 ! D18   D(3,4,11,7)           179.0648         -DE/DX =    0.0                 !
 ! D19   D(12,4,11,1)          179.9686         -DE/DX =    0.0                 !
 ! D20   D(12,4,11,7)           -1.1785         -DE/DX =    0.0                 !
 ! D21   D(8,7,11,1)          -157.4986         -DE/DX =    0.0                 !
 ! D22   D(8,7,11,4)            23.803          -DE/DX =    0.0                 !
 ! D23   D(9,7,11,1)           -37.6416         -DE/DX =    0.0                 !
 ! D24   D(9,7,11,4)           143.66           -DE/DX =    0.0                 !
 ! D25   D(10,7,11,1)           82.4299         -DE/DX =    0.0                 !
 ! D26   D(10,7,11,4)          -96.2685         -DE/DX =    0.0                 !
 --------------------------------------------------------------------------------
 GradGradGradGradGradGradGradGradGradGradGradGradGradGradGradGradGradGrad

                          Input orientation:                          
 ---------------------------------------------------------------------
 Center     Atomic      Atomic             Coordinates (Angstroms)
 Number     Number       Type             X           Y           Z
 ---------------------------------------------------------------------
      1          6           0        0.002701   -0.214927   -1.182421
      2          6           0        0.009976   -1.643008   -0.668717
      3          6           0        0.009976   -1.643008    0.668717
      4          6           0        0.002701   -0.214927    1.182421
      5          1           0        0.014507   -2.471891   -1.362433
      6          1           0        0.014507   -2.471891    1.362433
      7          6           0       -0.024549    2.072757    0.000000
      8          1           0        0.375924    2.463816    0.952645
      9          1           0        0.591927    2.467657   -0.827557
     10          1           0       -1.056476    2.447314   -0.124402
     11          7           0        0.001648    0.599644    0.000000
     12          8           0        0.002701    0.201635    2.311191
     13          8           0        0.002701    0.201635   -2.311191
 ---------------------------------------------------------------------
                    Distance matrix (angstroms):
                    1          2          3          4          5
     1  C    0.000000
     2  C    1.517682   0.000000
     3  C    2.337986   1.337434   0.000000
     4  C    2.364842   2.337986   1.517682   0.000000
     5  H    2.264162   1.080884   2.193773   3.401516   0.000000
     6  H    3.401516   2.193773   1.080884   2.264162   2.724866
     7  C    2.575337   3.775617   3.775617   2.575337   4.744636
     8  H    3.445790   4.430433   4.132861   2.714361   5.463645
     9  H    2.769364   4.154692   4.413057   3.403448   5.001864
    10  H    3.054306   4.261963   4.300824   3.149154   5.184429
    11  N    1.435843   2.340244   2.340244   1.435843   3.360166
    12  O    3.518359   3.504656   2.469915   1.203181   4.543500
    13  O    1.203181   2.469915   3.504656   3.518359   2.836904
                    6          7          8          9         10
     6  H    0.000000
     7  C    4.744636   0.000000
     8  H    4.965859   1.104916   0.000000
     9  H    5.434023   1.104916   1.793262   0.000000
    10  H    5.249405   1.104827   1.792226   1.792226   0.000000
    11  N    3.360166   1.473346   2.126676   2.126676   2.132835
    12  O    2.836904   2.973793   2.665034   3.915837   3.478080
    13  O    4.543500   2.973793   3.988657   2.771861   3.308622
                   11         12         13
    11  N    0.000000
    12  O    2.345211   0.000000
    13  O    2.345211   4.622382   0.000000
 Stoichiometry    C5H5NO2
 Framework group  C1[X(C5H5NO2)]
 Deg. of freedom    33
 Full point group                 C1      NOp   1
 Largest Abelian subgroup         C1      NOp   1
 Largest concise Abelian subgroup C1      NOp   1
                         Standard orientation:                         
 ---------------------------------------------------------------------
 Center     Atomic      Atomic             Coordinates (Angstroms)
 Number     Number       Type             X           Y           Z
 ---------------------------------------------------------------------
      1          6           0       -1.182439   -0.214910   -0.000888
      2          6           0       -0.668774   -1.643015    0.003866
      3          6           0        0.668660   -1.643052    0.003862
      4          6           0        1.182403   -0.214975   -0.000894
      5          1           0       -1.362513   -2.471888    0.006319
      6          1           0        1.362353   -2.471963    0.006312
      7          6           0        0.000045    2.072890    0.007087
      8          1           0        0.952700    2.460536   -0.396669
      9          1           0       -0.827502    2.462606   -0.612691
     10          1           0       -0.124343    2.456130    1.035823
     11          7           0        0.000005    0.599609   -0.006700
     12          8           0        2.311185    0.201542   -0.004406
     13          8           0       -2.311197    0.201669   -0.004394
 ---------------------------------------------------------------------
 Rotational constants (GHZ):      3.2401669      2.2749787      1.3481131
 1\1\GINC-D10S0B4\FOpt\RPM6\ZDO\C5H5N1O2\CHMKSH\23-Jul-2020\0\\# opt fr
 eq pm6 scrf=(cpcm,solvent=toluene) empiricaldispersion=gd3\\Title Card
  Required\\0,1\C,0.002701,-0.214927,-1.182421\C,0.009976,-1.643008,-0.
 668717\C,0.009976,-1.643008,0.668717\C,0.002701,-0.214927,1.182421\H,0
 .014507,-2.471891,-1.362433\H,0.014507,-2.471891,1.362433\C,-0.024549,
 2.072757,0.\H,0.37592428,2.46381614,0.95264483\H,0.5919266,2.4676574,-
 0.82755651\H,-1.05647639,2.44731372,-0.12440163\N,0.001648,0.599644,0.
 \O,0.002701,0.201635,2.311191\O,0.002701,0.201635,-2.311191\\Version=E
 S64L-G09RevD.01\State=1-A\HF=-0.0897357\RMSD=6.728e-09\RMSF=8.025e-05\
 Dipole=-0.0006975,-0.5430257,0.0039616\PG=C01 [X(C5H5N1O2)]\\@


 THOSE WHO ASPIRE NOT TO GUESS AND DIVINE,
 BUT TO DISCOVER AND KNOW, WHO PROPOSE NOT TO DEVISE 
 MIMIC AND FABULOUS WORLDS OF THEIR OWN, BUT TO 
 EXAMINE AND DISSECT THE NATURE OF THIS VERY WORLD 
 ITSELF, MUST GO TO THE FACTS THEMSELVES FOR EVERYTHING.

                               -- FRANCIS BACON, 1620
 Job cpu time:       0 days  0 hours  0 minutes  7.4 seconds.
 File lengths (MBytes):  RWF=     21 Int=      0 D2E=      0 Chk=      3 Scr=      1
 Normal termination of Gaussian 09 at Thu Jul 23 01:48:25 2020.
 Link1:  Proceeding to internal job step number  2.
 -------------------------------------------------------------
 #N Geom=AllCheck Guess=TCheck SCRF=Check GenChk RPM6/ZDO Freq
 -------------------------------------------------------------
 1/10=4,29=7,30=1,38=1,40=1/1,3;
 2/12=2,40=1/2;
 3/5=2,14=-4,16=1,25=1,41=3900000,70=2,71=2,72=13,116=1,124=31,135=40,140=1/1,2,3;
 4/5=101,35=1/1;
 5/5=2,35=1,53=13,98=1/2;
 8/6=4,10=90,11=11/1;
 11/6=1,8=1,9=11,15=111,16=1/1,2,10;
 10/6=1/2;
 6/7=2,8=2,9=2,10=2,18=1,28=1/1;
 7/8=1,10=1,25=1/1,2,3,16;
 1/10=4,30=1/3;
 99//99;
 Structure from the checkpoint file:  "dienophile_pm6_cpcmtoluene_1.chk"
 -------------------
 Title Card Required
 -------------------
 Charge =  0 Multiplicity = 1
 Redundant internal coordinates found in file.
 C,0,0.002701,-0.214927,-1.182421
 C,0,0.009976,-1.643008,-0.668717
 C,0,0.009976,-1.643008,0.668717
 C,0,0.002701,-0.214927,1.182421
 H,0,0.014507,-2.471891,-1.362433
 H,0,0.014507,-2.471891,1.362433
 C,0,-0.024549,2.072757,0.
 H,0,0.37592428,2.46381614,0.95264483
 H,0,0.5919266,2.4676574,-0.82755651
 H,0,-1.05647639,2.44731372,-0.12440163
 N,0,0.001648,0.599644,0.
 O,0,0.002701,0.201635,2.311191
 O,0,0.002701,0.201635,-2.311191
 Recover connectivity data from disk.

 GradGradGradGradGradGradGradGradGradGradGradGradGradGradGradGradGradGrad
 Berny optimization.
 Initialization pass.
                           ----------------------------
                           !    Initial Parameters    !
                           ! (Angstroms and Degrees)  !
 --------------------------                            --------------------------
 ! Name  Definition              Value          Derivative Info.                !
 --------------------------------------------------------------------------------
 ! R1    R(1,2)                  1.5177         calculate D2E/DX2 analytically  !
 ! R2    R(1,11)                 1.4358         calculate D2E/DX2 analytically  !
 ! R3    R(1,13)                 1.2032         calculate D2E/DX2 analytically  !
 ! R4    R(2,3)                  1.3374         calculate D2E/DX2 analytically  !
 ! R5    R(2,5)                  1.0809         calculate D2E/DX2 analytically  !
 ! R6    R(3,4)                  1.5177         calculate D2E/DX2 analytically  !
 ! R7    R(3,6)                  1.0809         calculate D2E/DX2 analytically  !
 ! R8    R(4,11)                 1.4358         calculate D2E/DX2 analytically  !
 ! R9    R(4,12)                 1.2032         calculate D2E/DX2 analytically  !
 ! R10   R(7,8)                  1.1049         calculate D2E/DX2 analytically  !
 ! R11   R(7,9)                  1.1049         calculate D2E/DX2 analytically  !
 ! R12   R(7,10)                 1.1048         calculate D2E/DX2 analytically  !
 ! R13   R(7,11)                 1.4733         calculate D2E/DX2 analytically  !
 ! A1    A(2,1,11)             104.7785         calculate D2E/DX2 analytically  !
 ! A2    A(2,1,13)             130.04           calculate D2E/DX2 analytically  !
 ! A3    A(11,1,13)            125.1809         calculate D2E/DX2 analytically  !
 ! A4    A(1,2,3)              109.7842         calculate D2E/DX2 analytically  !
 ! A5    A(1,2,5)              120.2892         calculate D2E/DX2 analytically  !
 ! A6    A(3,2,5)              129.9265         calculate D2E/DX2 analytically  !
 ! A7    A(2,3,4)              109.7842         calculate D2E/DX2 analytically  !
 ! A8    A(2,3,6)              129.9265         calculate D2E/DX2 analytically  !
 ! A9    A(4,3,6)              120.2892         calculate D2E/DX2 analytically  !
 ! A10   A(3,4,11)             104.7785         calculate D2E/DX2 analytically  !
 ! A11   A(3,4,12)             130.04           calculate D2E/DX2 analytically  !
 ! A12   A(11,4,12)            125.1809         calculate D2E/DX2 analytically  !
 ! A13   A(8,7,9)              108.4841         calculate D2E/DX2 analytically  !
 ! A14   A(8,7,10)             108.3985         calculate D2E/DX2 analytically  !
 ! A15   A(8,7,11)             110.33           calculate D2E/DX2 analytically  !
 ! A16   A(9,7,10)             108.3985         calculate D2E/DX2 analytically  !
 ! A17   A(9,7,11)             110.33           calculate D2E/DX2 analytically  !
 ! A18   A(10,7,11)            110.8285         calculate D2E/DX2 analytically  !
 ! A19   A(1,11,4)             110.874          calculate D2E/DX2 analytically  !
 ! A20   A(1,11,7)             124.5577         calculate D2E/DX2 analytically  !
 ! A21   A(4,11,7)             124.5577         calculate D2E/DX2 analytically  !
 ! D1    D(11,1,2,3)             0.1278         calculate D2E/DX2 analytically  !
 ! D2    D(11,1,2,5)          -179.8533         calculate D2E/DX2 analytically  !
 ! D3    D(13,1,2,3)           179.868          calculate D2E/DX2 analytically  !
 ! D4    D(13,1,2,5)            -0.1131         calculate D2E/DX2 analytically  !
 ! D5    D(2,1,11,4)            -0.212          calculate D2E/DX2 analytically  !
 ! D6    D(2,1,11,7)          -179.0648         calculate D2E/DX2 analytically  !
 ! D7    D(13,1,11,4)         -179.9686         calculate D2E/DX2 analytically  !
 ! D8    D(13,1,11,7)            1.1785         calculate D2E/DX2 analytically  !
 ! D9    D(1,2,3,4)              0.0            calculate D2E/DX2 analytically  !
 ! D10   D(1,2,3,6)           -179.9787         calculate D2E/DX2 analytically  !
 ! D11   D(5,2,3,4)            179.9787         calculate D2E/DX2 analytically  !
 ! D12   D(5,2,3,6)              0.0            calculate D2E/DX2 analytically  !
 ! D13   D(2,3,4,11)            -0.1278         calculate D2E/DX2 analytically  !
 ! D14   D(2,3,4,12)          -179.868          calculate D2E/DX2 analytically  !
 ! D15   D(6,3,4,11)           179.8533         calculate D2E/DX2 analytically  !
 ! D16   D(6,3,4,12)             0.1131         calculate D2E/DX2 analytically  !
 ! D17   D(3,4,11,1)             0.212          calculate D2E/DX2 analytically  !
 ! D18   D(3,4,11,7)           179.0648         calculate D2E/DX2 analytically  !
 ! D19   D(12,4,11,1)          179.9686         calculate D2E/DX2 analytically  !
 ! D20   D(12,4,11,7)           -1.1785         calculate D2E/DX2 analytically  !
 ! D21   D(8,7,11,1)          -157.4986         calculate D2E/DX2 analytically  !
 ! D22   D(8,7,11,4)            23.803          calculate D2E/DX2 analytically  !
 ! D23   D(9,7,11,1)           -37.6416         calculate D2E/DX2 analytically  !
 ! D24   D(9,7,11,4)           143.66           calculate D2E/DX2 analytically  !
 ! D25   D(10,7,11,1)           82.4299         calculate D2E/DX2 analytically  !
 ! D26   D(10,7,11,4)          -96.2685         calculate D2E/DX2 analytically  !
 --------------------------------------------------------------------------------
 Trust Radius=3.00D-01 FncErr=1.00D-07 GrdErr=1.00D-07
 Number of steps in this run=      2 maximum allowed number of steps=      2.
 GradGradGradGradGradGradGradGradGradGradGradGradGradGradGradGradGradGrad

                          Input orientation:                          
 ---------------------------------------------------------------------
 Center     Atomic      Atomic             Coordinates (Angstroms)
 Number     Number       Type             X           Y           Z
 ---------------------------------------------------------------------
      1          6           0        0.002701   -0.214927   -1.182421
      2          6           0        0.009976   -1.643008   -0.668717
      3          6           0        0.009976   -1.643008    0.668717
      4          6           0        0.002701   -0.214927    1.182421
      5          1           0        0.014507   -2.471891   -1.362433
      6          1           0        0.014507   -2.471891    1.362433
      7          6           0       -0.024549    2.072757    0.000000
      8          1           0        0.375924    2.463816    0.952645
      9          1           0        0.591927    2.467657   -0.827557
     10          1           0       -1.056476    2.447314   -0.124402
     11          7           0        0.001648    0.599644    0.000000
     12          8           0        0.002701    0.201635    2.311191
     13          8           0        0.002701    0.201635   -2.311191
 ---------------------------------------------------------------------
                    Distance matrix (angstroms):
                    1          2          3          4          5
     1  C    0.000000
     2  C    1.517682   0.000000
     3  C    2.337986   1.337434   0.000000
     4  C    2.364842   2.337986   1.517682   0.000000
     5  H    2.264162   1.080884   2.193773   3.401516   0.000000
     6  H    3.401516   2.193773   1.080884   2.264162   2.724866
     7  C    2.575337   3.775617   3.775617   2.575337   4.744636
     8  H    3.445790   4.430433   4.132861   2.714361   5.463645
     9  H    2.769364   4.154692   4.413057   3.403448   5.001864
    10  H    3.054306   4.261963   4.300824   3.149154   5.184429
    11  N    1.435843   2.340244   2.340244   1.435843   3.360166
    12  O    3.518359   3.504656   2.469915   1.203181   4.543500
    13  O    1.203181   2.469915   3.504656   3.518359   2.836904
                    6          7          8          9         10
     6  H    0.000000
     7  C    4.744636   0.000000
     8  H    4.965859   1.104916   0.000000
     9  H    5.434023   1.104916   1.793262   0.000000
    10  H    5.249405   1.104827   1.792226   1.792226   0.000000
    11  N    3.360166   1.473346   2.126676   2.126676   2.132835
    12  O    2.836904   2.973793   2.665034   3.915837   3.478080
    13  O    4.543500   2.973793   3.988657   2.771861   3.308622
                   11         12         13
    11  N    0.000000
    12  O    2.345211   0.000000
    13  O    2.345211   4.622382   0.000000
 Stoichiometry    C5H5NO2
 Framework group  C1[X(C5H5NO2)]
 Deg. of freedom    33
 Full point group                 C1      NOp   1
 Largest Abelian subgroup         C1      NOp   1
 Largest concise Abelian subgroup C1      NOp   1
                         Standard orientation:                         
 ---------------------------------------------------------------------
 Center     Atomic      Atomic             Coordinates (Angstroms)
 Number     Number       Type             X           Y           Z
 ---------------------------------------------------------------------
      1          6           0       -1.182439   -0.214910   -0.000888
      2          6           0       -0.668774   -1.643015    0.003866
      3          6           0        0.668660   -1.643052    0.003862
      4          6           0        1.182403   -0.214975   -0.000894
      5          1           0       -1.362513   -2.471888    0.006319
      6          1           0        1.362353   -2.471963    0.006312
      7          6           0        0.000045    2.072890    0.007087
      8          1           0        0.952700    2.460536   -0.396669
      9          1           0       -0.827502    2.462606   -0.612691
     10          1           0       -0.124343    2.456130    1.035823
     11          7           0        0.000005    0.599609   -0.006700
     12          8           0        2.311185    0.201542   -0.004406
     13          8           0       -2.311197    0.201669   -0.004394
 ---------------------------------------------------------------------
 Rotational constants (GHZ):      3.2401669      2.2749787      1.3481131
 Standard basis: VSTO-6G (5D, 7F)
 There are    37 symmetry adapted cartesian basis functions of A   symmetry.
 There are    37 symmetry adapted basis functions of A   symmetry.
    37 basis functions,   222 primitive gaussians,    37 cartesian basis functions
    21 alpha electrons       21 beta electrons
       nuclear repulsion energy       212.6202338807 Hartrees.
 Integral buffers will be    131072 words long.
 Regular integral format.
 Two-electron integral symmetry is turned off.
 Nuclear repulsion after empirical dispersion term =      212.6176244080 Hartrees.
 Force inversion solution in PCM.
 ------------------------------------------------------------------------------
 Polarizable Continuum Model (PCM)
 =================================
 Model                : C-PCM.
 Atomic radii         : UFF (Universal Force Field).
 Polarization charges : Total charges.
 Charge compensation  : None.
 Solution method      : Matrix inversion.
 Cavity type          : Scaled VdW (van der Waals Surface) (Alpha=1.100).
 Cavity algorithm     : GePol (No added spheres)
                        Default sphere list used, NSphG=   13.
                        Lebedev-Laikov grids with approx.  5.0 points / Ang**2.
                        Smoothing algorithm: Karplus/York (Gamma=1.0000).
                        Polarization charges: spherical gaussians, with
                                              point-specific exponents (IZeta= 3).
                        Self-potential: point-specific (ISelfS= 7).
                        Self-field    : sphere-specific E.n sum rule (ISelfD= 2).
 1st derivatives      : Analytical E(r).r(x)/FMM algorithm (CHGder, D1EAlg=3).
                        Cavity 1st derivative terms included.
 2nd derivatives      : Analytical E(r).r(xy)/FMM algorithm (CHGder, D2EAlg=3).
                        Cavity 2nd derivative terms included.
 Solvent              : Toluene, Eps=   2.374100 Eps(inf)=   2.238315
 ------------------------------------------------------------------------------
 Spheres list:
 ISph  on   Nord     Re0    Alpha      Xe            Ye            Ze
    1   C      1    1.9255  1.100     -1.182439     -0.214910     -0.000888
    2   C      2    1.9255  1.100     -0.668774     -1.643015      0.003866
    3   C      3    1.9255  1.100      0.668660     -1.643052      0.003862
    4   C      4    1.9255  1.100      1.182403     -0.214975     -0.000894
    5   H      5    1.4430  1.100     -1.362513     -2.471888      0.006319
    6   H      6    1.4430  1.100      1.362353     -2.471963      0.006312
    7   C      7    1.9255  1.100      0.000045      2.072890      0.007087
    8   H      8    1.4430  1.100      0.952700      2.460536     -0.396669
    9   H      9    1.4430  1.100     -0.827502      2.462606     -0.612691
   10   H     10    1.4430  1.100     -0.124343      2.456130      1.035823
   11   N     11    1.8300  1.100      0.000005      0.599609     -0.006700
   12   O     12    1.7500  1.100      2.311185      0.201542     -0.004406
   13   O     13    1.7500  1.100     -2.311197      0.201669     -0.004394
 ------------------------------------------------------------------------------
 Do NDO integrals.
 One-electron integrals computed using PRISM.
 NBasis=    37 RedAO= F EigKep=  0.00D+00  NBF=    37
 NBsUse=    37 1.00D-04 EigRej=  0.00D+00 NBFU=    37
 Initial guess from the checkpoint file:  "dienophile_pm6_cpcmtoluene_1.chk"
 B after Tr=     0.000000    0.000000    0.000000
         Rot=    1.000000    0.000000    0.000000    0.000000 Ang=   0.00 deg.
 Overlap will be assumed to be unity.
 Keep J ints in memory in canonical form, NReq=4851297.
 Requested convergence on RMS density matrix=1.00D-08 within 128 cycles.
 Requested convergence on MAX density matrix=1.00D-06.
 Requested convergence on             energy=1.00D-06.
 No special actions if energy rises.
 Inv3:  Mode=1 IEnd=     4961388.
 Iteration    1 A*A^-1 deviation from unit magnitude is 6.22D-15 for   1273.
 Iteration    1 A*A^-1 deviation from orthogonality  is 1.66D-15 for   1146    111.
 Iteration    1 A^-1*A deviation from unit magnitude is 6.00D-15 for   1273.
 Iteration    1 A^-1*A deviation from orthogonality  is 1.24D-15 for   1050    805.
 Error on total polarization charges = -0.00024
 SCF Done:  E(RPM6D3) = -0.897356748670E-01 A.U. after    2 cycles
            NFock=  1  Conv=0.68D-09     -V/T= 0.9963
 Range of M.O.s used for correlation:     1    37
 NBasis=    37 NAE=    21 NBE=    21 NFC=     0 NFV=     0
 NROrb=     37 NOA=    21 NOB=    21 NVA=    16 NVB=    16
 Symmetrizing basis deriv contribution to polar:
 IMax=3 JMax=2 DiffMx= 0.00D+00
 G2DrvN: will do    14 centers at a time, making    1 passes.
 Calling FoFCou, ICntrl=  3107 FMM=F I1Cent=   0 AccDes= 0.00D+00.
 NEqPCM:  Using equilibrium solvation (IEInf=0, Eps=   2.3741, EpsInf=   2.2383)
 G2PCM: DoFxE=T DoFxN=T DoGrad=T DoDP/DQ/DG/TGxP=FFFF NFrqRd=   0 IEInf=0 SqF1=F DoCFld=F IF1Alg=4.
 End of G2Drv F.D. properties file   721 does not exist.
 End of G2Drv F.D. properties file   722 does not exist.
 End of G2Drv F.D. properties file   788 does not exist.
          IDoAtm=1111111111111
 NEqPCM:  Using equilibrium solvation (IEInf=0, Eps=   2.3741, EpsInf=   2.2383)
          Differentiating once with respect to electric field.
                with respect to dipole field.
          Differentiating once with respect to nuclear coordinates.
          Electric field/nuclear overlap derivatives assumed to be zero.
 Keep J ints in memory in canonical form, NReq=5170839.
          There are    42 degrees of freedom in the 1st order CPHF.  IDoFFX=5 NUNeed=    42.
 LinEq1:  Iter=  0 NonCon=    42 RMS=3.72D-01 Max=4.14D+00 NDo=    42
 AX will form    42 AO Fock derivatives at one time.
 LinEq1:  Iter=  1 NonCon=    42 RMS=4.55D-02 Max=2.42D-01 NDo=    42
 LinEq1:  Iter=  2 NonCon=    42 RMS=7.23D-03 Max=5.29D-02 NDo=    42
 LinEq1:  Iter=  3 NonCon=    42 RMS=1.10D-03 Max=6.96D-03 NDo=    42
 LinEq1:  Iter=  4 NonCon=    42 RMS=1.89D-04 Max=1.62D-03 NDo=    42
 LinEq1:  Iter=  5 NonCon=    42 RMS=2.76D-05 Max=3.23D-04 NDo=    42
 LinEq1:  Iter=  6 NonCon=    41 RMS=3.53D-06 Max=1.98D-05 NDo=    42
 LinEq1:  Iter=  7 NonCon=    28 RMS=4.02D-07 Max=2.29D-06 NDo=    42
 LinEq1:  Iter=  8 NonCon=     5 RMS=6.33D-08 Max=4.88D-07 NDo=    42
 LinEq1:  Iter=  9 NonCon=     1 RMS=1.26D-08 Max=8.80D-08 NDo=    42
 LinEq1:  Iter= 10 NonCon=     0 RMS=2.15D-09 Max=1.32D-08 NDo=    42
 Linear equations converged to 1.000D-08 1.000D-07 after    10 iterations.
 Isotropic polarizability for W=    0.000000       65.90 Bohr**3.
 End of Minotr F.D. properties file   721 does not exist.
 End of Minotr F.D. properties file   722 does not exist.
 End of Minotr F.D. properties file   788 does not exist.

 **********************************************************************

            Population analysis using the SCF density.

 **********************************************************************

 Orbital symmetries:
       Occupied  (A) (A) (A) (A) (A) (A) (A) (A) (A) (A) (A) (A)
                 (A) (A) (A) (A) (A) (A) (A) (A) (A)
       Virtual   (A) (A) (A) (A) (A) (A) (A) (A) (A) (A) (A) (A)
                 (A) (A) (A) (A)
 The electronic state is 1-A.
 Alpha  occ. eigenvalues --   -1.24063  -1.20573  -1.17576  -1.06578  -0.91717
 Alpha  occ. eigenvalues --   -0.88682  -0.78357  -0.74890  -0.64653  -0.62919
 Alpha  occ. eigenvalues --   -0.61155  -0.58413  -0.56804  -0.55818  -0.53773
 Alpha  occ. eigenvalues --   -0.53411  -0.51076  -0.44083  -0.43870  -0.40315
 Alpha  occ. eigenvalues --   -0.38916
 Alpha virt. eigenvalues --   -0.05770   0.01687   0.02567   0.03221   0.07813
 Alpha virt. eigenvalues --    0.08021   0.12135   0.12539   0.14454   0.16718
 Alpha virt. eigenvalues --    0.17053   0.18638   0.18657   0.18795   0.19182
 Alpha virt. eigenvalues --    0.21201
          Condensed to atoms (all electrons):
               1          2          3          4          5          6
     1  C    3.391908   0.000000   0.000000   0.000000   0.000000   0.000000
     2  C    0.000000   4.215680   0.000000   0.000000   0.000000   0.000000
     3  C    0.000000   0.000000   4.215540   0.000000   0.000000   0.000000
     4  C    0.000000   0.000000   0.000000   3.392120   0.000000   0.000000
     5  H    0.000000   0.000000   0.000000   0.000000   0.798129   0.000000
     6  H    0.000000   0.000000   0.000000   0.000000   0.000000   0.798146
     7  C    0.000000   0.000000   0.000000   0.000000   0.000000   0.000000
     8  H    0.000000   0.000000   0.000000   0.000000   0.000000   0.000000
     9  H    0.000000   0.000000   0.000000   0.000000   0.000000   0.000000
    10  H    0.000000   0.000000   0.000000   0.000000   0.000000   0.000000
    11  N    0.000000   0.000000   0.000000   0.000000   0.000000   0.000000
    12  O    0.000000   0.000000   0.000000   0.000000   0.000000   0.000000
    13  O    0.000000   0.000000   0.000000   0.000000   0.000000   0.000000
               7          8          9         10         11         12
     1  C    0.000000   0.000000   0.000000   0.000000   0.000000   0.000000
     2  C    0.000000   0.000000   0.000000   0.000000   0.000000   0.000000
     3  C    0.000000   0.000000   0.000000   0.000000   0.000000   0.000000
     4  C    0.000000   0.000000   0.000000   0.000000   0.000000   0.000000
     5  H    0.000000   0.000000   0.000000   0.000000   0.000000   0.000000
     6  H    0.000000   0.000000   0.000000   0.000000   0.000000   0.000000
     7  C    4.250877   0.000000   0.000000   0.000000   0.000000   0.000000
     8  H    0.000000   0.831778   0.000000   0.000000   0.000000   0.000000
     9  H    0.000000   0.000000   0.834609   0.000000   0.000000   0.000000
    10  H    0.000000   0.000000   0.000000   0.842427   0.000000   0.000000
    11  N    0.000000   0.000000   0.000000   0.000000   5.490990   0.000000
    12  O    0.000000   0.000000   0.000000   0.000000   0.000000   6.469218
    13  O    0.000000   0.000000   0.000000   0.000000   0.000000   0.000000
              13
     1  C    0.000000
     2  C    0.000000
     3  C    0.000000
     4  C    0.000000
     5  H    0.000000
     6  H    0.000000
     7  C    0.000000
     8  H    0.000000
     9  H    0.000000
    10  H    0.000000
    11  N    0.000000
    12  O    0.000000
    13  O    6.468577
 Mulliken charges:
               1
     1  C    0.608092
     2  C   -0.215680
     3  C   -0.215540
     4  C    0.607880
     5  H    0.201871
     6  H    0.201854
     7  C   -0.250877
     8  H    0.168222
     9  H    0.165391
    10  H    0.157573
    11  N   -0.490990
    12  O   -0.469218
    13  O   -0.468577
 Sum of Mulliken charges =   0.00000
 Mulliken charges with hydrogens summed into heavy atoms:
               1
     1  C    0.608092
     2  C   -0.013808
     3  C   -0.013687
     4  C    0.607880
     7  C    0.240308
    11  N   -0.490990
    12  O   -0.469218
    13  O   -0.468577
 APT charges:
               1
     1  C    1.763464
     2  C   -0.454589
     3  C   -0.453579
     4  C    1.763151
     5  H    0.271614
     6  H    0.271677
     7  C   -0.271092
     8  H    0.190695
     9  H    0.183438
    10  H    0.165462
    11  N   -1.424220
    12  O   -1.003994
    13  O   -1.002012
 Sum of APT charges =   0.00001
 APT charges with hydrogens summed into heavy atoms:
               1
     1  C    1.763464
     2  C   -0.182976
     3  C   -0.181902
     4  C    1.763151
     7  C    0.268503
    11  N   -1.424220
    12  O   -1.003994
    13  O   -1.002012
 Charge=              0.0000 electrons
 Dipole moment (field-independent basis, Debye):
    X=              0.0100    Y=             -1.3802    Z=              0.0134  Tot=              1.3803
 N-N= 2.126176244080D+02 E-N=-3.711574441523D+02  KE=-2.451442511824D+01
  Exact polarizability: 124.631  -0.113  57.502   0.004   0.075  15.557
 Approx polarizability:  84.099  -0.052  35.743   0.003  -0.010   9.625
 D2PCM: C-PCM CHGder 2nd derivatives, FixD1E=F FixD2E=F DoIter=F DoCFld=F I1PDM=0
 Calling FoFJK, ICntrl=    100127 FMM=F ISym2X=0 I1Cent= 0 IOpClX= 0 NMat=1 NMatS=1 NMatT=0.
 Full mass-weighted force constant matrix:
 Low frequencies ---  -17.0695   -4.5361   -0.0197   -0.0013    0.0157    7.0027
 Low frequencies ---   17.8657  110.0048  187.1909
 Diagonal vibrational polarizability:
       50.9366956      17.9025599      72.9425903
 Harmonic frequencies (cm**-1), IR intensities (KM/Mole), Raman scattering
 activities (A**4/AMU), depolarization ratios for plane and unpolarized
 incident light, reduced masses (AMU), force constants (mDyne/A),
 and normal coordinates:
                      1                      2                      3
                      A                      A                      A
 Frequencies --     12.8918               109.9930               187.1817
 Red. masses --      1.0245                 5.8937                 5.0804
 Frc consts  --      0.0001                 0.0420                 0.1049
 IR Inten    --      0.1073                19.9952                12.0025
  Atom  AN      X      Y      Z        X      Y      Z        X      Y      Z
     1   6     0.00   0.00   0.01     0.00   0.00  -0.03     0.00   0.00  -0.09
     2   6     0.00   0.00   0.00     0.00   0.00   0.19     0.00   0.00   0.09
     3   6     0.00   0.00  -0.01     0.00   0.00   0.19     0.00   0.00   0.09
     4   6     0.00   0.00  -0.01     0.00   0.00  -0.03     0.00   0.00  -0.09
     5   1     0.00   0.00   0.00     0.00   0.00   0.32     0.00   0.00   0.19
     6   1     0.00   0.00  -0.02     0.00   0.00   0.32     0.00   0.00   0.19
     7   6     0.00   0.00  -0.01     0.00   0.00   0.29     0.00  -0.01   0.17
     8   1     0.22  -0.01   0.52     0.03   0.06   0.42     0.01   0.16   0.36
     9   1     0.34   0.00  -0.47     0.04   0.09   0.30     0.02   0.25   0.30
    10   1    -0.57   0.01  -0.08    -0.08  -0.16   0.35    -0.04  -0.43   0.33
    11   7     0.00   0.00   0.00     0.00   0.00   0.08     0.00   0.00  -0.49
    12   8     0.00   0.00  -0.01     0.00   0.00  -0.32     0.00   0.00   0.10
    13   8     0.00   0.00   0.03     0.00   0.00  -0.32     0.00   0.00   0.11
                      4                      5                      6
                      A                      A                      A
 Frequencies --    250.5924               257.9901               350.0433
 Red. masses --      3.2946                 3.4951                10.5940
 Frc consts  --      0.1219                 0.1371                 0.7648
 IR Inten    --      5.4798                 0.0151                43.5665
  Atom  AN      X      Y      Z        X      Y      Z        X      Y      Z
     1   6    -0.05  -0.01  -0.01     0.00   0.00   0.12     0.04   0.12   0.00
     2   6     0.00  -0.01  -0.02     0.00   0.00   0.27     0.02   0.14   0.00
     3   6     0.00   0.01   0.02     0.00   0.00  -0.27    -0.02   0.14   0.00
     4   6    -0.05   0.01   0.01     0.00   0.00  -0.12    -0.04   0.12   0.00
     5   1     0.01  -0.02  -0.04     0.00   0.00   0.63    -0.02   0.17   0.00
     6   1     0.01   0.01   0.05     0.00   0.00  -0.62     0.03   0.17   0.00
     7   6     0.33   0.00   0.00     0.02   0.00   0.00     0.00   0.29   0.00
     8   1     0.47  -0.30   0.02     0.03  -0.02   0.00     0.00   0.29   0.00
     9   1     0.47   0.26  -0.01     0.03   0.02   0.00     0.01   0.29  -0.01
    10   1     0.46   0.04   0.00     0.03   0.00   0.00     0.00   0.29   0.00
    11   7    -0.06   0.00   0.00     0.00   0.00   0.00     0.00   0.26   0.00
    12   8    -0.10   0.15  -0.01    -0.01   0.01   0.13     0.17  -0.45   0.00
    13   8    -0.10  -0.14   0.01    -0.01  -0.01  -0.13    -0.17  -0.45   0.00
                      7                      8                      9
                      A                      A                      A
 Frequencies --    528.7682               542.6719               554.0203
 Red. masses --      4.9134                 9.3771                 3.5214
 Frc consts  --      0.8094                 1.6270                 0.6368
 IR Inten    --     30.5082                 0.6665                42.8601
  Atom  AN      X      Y      Z        X      Y      Z        X      Y      Z
     1   6    -0.14  -0.19   0.00    -0.29   0.07   0.03     0.01   0.00   0.29
     2   6     0.16  -0.14   0.00    -0.01   0.22   0.00     0.00  -0.01  -0.02
     3   6     0.16   0.13   0.00     0.02   0.23   0.00     0.00  -0.01  -0.02
     4   6    -0.15   0.19   0.00     0.27   0.08   0.03    -0.01   0.00   0.29
     5   1     0.39  -0.33   0.01     0.17   0.06  -0.07    -0.01   0.00  -0.62
     6   1     0.40   0.32   0.00    -0.13   0.09  -0.07     0.01   0.00  -0.63
     7   6     0.05   0.01   0.00     0.00  -0.34   0.00     0.00   0.01  -0.01
     8   1     0.15  -0.21   0.01    -0.01  -0.30   0.00     0.00   0.03   0.00
     9   1     0.16   0.20  -0.01     0.02  -0.28   0.00     0.00   0.04   0.00
    10   1     0.15   0.04   0.00     0.01  -0.31  -0.01    -0.01  -0.04   0.00
    11   7    -0.18   0.01   0.00    -0.01  -0.22  -0.01     0.00   0.01  -0.17
    12   8     0.00  -0.20   0.00     0.34   0.01  -0.01    -0.02   0.00  -0.09
    13   8     0.01   0.20   0.00    -0.34   0.03  -0.01     0.02   0.00  -0.09
                     10                     11                     12
                      A                      A                      A
 Frequencies --    645.4911               670.2214               835.5858
 Red. masses --      8.2139                 4.2853                 6.2903
 Frc consts  --      2.0164                 1.1341                 2.5876
 IR Inten    --     24.2090                 0.0142                16.7989
  Atom  AN      X      Y      Z        X      Y      Z        X      Y      Z
     1   6    -0.06   0.27   0.00     0.00   0.00   0.36     0.19   0.09   0.00
     2   6     0.35   0.27   0.00     0.00   0.00  -0.10     0.01   0.25   0.00
     3   6     0.35  -0.27   0.00     0.00   0.00   0.10    -0.01   0.26   0.00
     4   6    -0.06  -0.27   0.00     0.00   0.00  -0.36    -0.19   0.09   0.00
     5   1     0.25   0.34   0.00     0.00   0.00  -0.60    -0.09   0.34   0.02
     6   1     0.25  -0.34   0.00     0.00   0.00   0.59     0.09   0.35   0.02
     7   6    -0.05   0.00   0.00     0.00   0.00   0.00     0.00  -0.36   0.00
     8   1    -0.07   0.03  -0.01     0.00   0.00   0.01     0.00  -0.31  -0.01
     9   1    -0.07  -0.02   0.00     0.00   0.00   0.00     0.00  -0.31  -0.01
    10   1    -0.07   0.00   0.00     0.01   0.00   0.00     0.00  -0.32   0.00
    11   7    -0.06   0.00   0.00     0.00   0.00   0.00     0.00  -0.05   0.01
    12   8    -0.18  -0.07   0.00     0.00   0.00   0.09    -0.19  -0.10   0.00
    13   8    -0.18   0.07   0.00     0.00   0.00  -0.09     0.19  -0.09   0.00
                     13                     14                     15
                      A                      A                      A
 Frequencies --    882.5695               960.9592               961.7108
 Red. masses --      1.5221                 1.8250                 1.7342
 Frc consts  --      0.6985                 0.9929                 0.9450
 IR Inten    --    196.9471               123.7691                69.1248
  Atom  AN      X      Y      Z        X      Y      Z        X      Y      Z
     1   6     0.00   0.00  -0.10    -0.04   0.03  -0.03    -0.03   0.02   0.04
     2   6     0.00   0.00   0.11     0.00  -0.07   0.10     0.00  -0.05  -0.13
     3   6     0.00   0.00   0.11     0.00   0.07  -0.10     0.00   0.05   0.13
     4   6     0.00   0.00  -0.10    -0.04  -0.03   0.03    -0.03  -0.02  -0.04
     5   1     0.00   0.00  -0.69     0.16  -0.20  -0.44     0.12  -0.14   0.57
     6   1     0.00   0.00  -0.69     0.16   0.20   0.44     0.12   0.14  -0.57
     7   6     0.00   0.00   0.00     0.08   0.00   0.00     0.06   0.00   0.00
     8   1     0.00   0.00   0.01    -0.13   0.44  -0.01    -0.10   0.33   0.00
     9   1     0.00   0.00   0.01    -0.14  -0.38   0.01    -0.10  -0.28   0.01
    10   1     0.00  -0.01   0.00    -0.16  -0.06   0.00    -0.12  -0.05   0.00
    11   7     0.00   0.00   0.04     0.13   0.00   0.00     0.10   0.00   0.00
    12   8     0.00   0.00   0.02    -0.06  -0.01  -0.01    -0.04   0.00   0.01
    13   8     0.00   0.00   0.02    -0.06   0.01   0.01    -0.04   0.00  -0.01
                     16                     17                     18
                      A                      A                      A
 Frequencies --   1024.6707              1051.3236              1057.7808
 Red. masses --      2.9049                 1.6543                 1.2984
 Frc consts  --      1.7970                 1.0773                 0.8560
 IR Inten    --    195.0225                76.1113                10.3175
  Atom  AN      X      Y      Z        X      Y      Z        X      Y      Z
     1   6     0.09   0.20   0.00    -0.02  -0.10   0.00     0.00   0.02  -0.01
     2   6    -0.02  -0.17   0.00     0.01   0.12   0.00     0.00  -0.02   0.00
     3   6    -0.02   0.17   0.00    -0.01   0.11   0.00     0.00  -0.02   0.00
     4   6     0.09  -0.21   0.00     0.02  -0.10   0.00     0.00   0.02  -0.01
     5   1     0.26  -0.37   0.00     0.55  -0.36   0.00    -0.11   0.07  -0.01
     6   1     0.24   0.36   0.00    -0.55  -0.36   0.00     0.11   0.07  -0.01
     7   6    -0.11   0.00   0.00     0.00   0.06   0.04     0.00  -0.02   0.14
     8   1     0.13  -0.46   0.01    -0.01  -0.03  -0.07    -0.05  -0.27  -0.30
     9   1     0.13   0.40  -0.02     0.01  -0.08  -0.07     0.07  -0.42  -0.28
    10   1     0.17   0.07   0.00    -0.01   0.23  -0.05    -0.02   0.69  -0.19
    11   7    -0.04   0.00   0.00     0.00  -0.02  -0.02     0.00   0.01  -0.06
    12   8    -0.02   0.00   0.00    -0.04  -0.01   0.00     0.01   0.00   0.00
    13   8    -0.02   0.00   0.00     0.04  -0.01   0.00    -0.01   0.00   0.00
                     19                     20                     21
                      A                      A                      A
 Frequencies --   1173.2449              1203.4097              1226.9835
 Red. masses --      2.1953                 1.9086                 1.0458
 Frc consts  --      1.7804                 1.6285                 0.9276
 IR Inten    --     39.2443                25.8806                46.9732
  Atom  AN      X      Y      Z        X      Y      Z        X      Y      Z
     1   6     0.05   0.16   0.00     0.05   0.05   0.00     0.00   0.00   0.00
     2   6     0.01  -0.10   0.00     0.04  -0.10   0.00     0.00  -0.01   0.00
     3   6    -0.01  -0.10   0.00     0.04   0.09   0.00     0.00   0.00   0.00
     4   6    -0.05   0.16   0.00     0.04  -0.05   0.00     0.00   0.00   0.00
     5   1     0.47  -0.47   0.00    -0.33   0.23   0.00    -0.02   0.01   0.00
     6   1    -0.47  -0.47   0.00    -0.34  -0.24   0.00    -0.03  -0.03   0.00
     7   6     0.00  -0.13   0.00     0.13   0.00   0.00     0.00  -0.01  -0.06
     8   1    -0.03  -0.04  -0.02    -0.10   0.17  -0.22     0.32  -0.14   0.59
     9   1     0.04  -0.04  -0.02    -0.21  -0.14   0.27    -0.42  -0.23   0.38
    10   1     0.01  -0.07   0.00    -0.60  -0.03  -0.07     0.13   0.35  -0.14
    11   7     0.00   0.09   0.00    -0.17   0.00   0.00     0.00   0.01  -0.01
    12   8     0.02   0.00   0.00     0.02   0.00   0.00     0.00   0.00   0.00
    13   8    -0.02   0.00   0.00     0.02   0.00   0.00     0.00   0.00   0.00
                     22                     23                     24
                      A                      A                      A
 Frequencies --   1229.3766              1259.4632              1322.3783
 Red. masses --      1.2804                 1.7022                 1.2870
 Frc consts  --      1.1401                 1.5909                 1.3260
 IR Inten    --      4.3269               316.2736                 0.1216
  Atom  AN      X      Y      Z        X      Y      Z        X      Y      Z
     1   6    -0.01   0.00   0.00    -0.04  -0.03   0.00     0.01   0.03   0.00
     2   6     0.05  -0.09   0.00     0.04  -0.05   0.00     0.00   0.00   0.00
     3   6     0.05   0.09   0.00     0.04   0.05   0.00     0.00   0.00   0.00
     4   6    -0.01  -0.01   0.00    -0.04   0.03   0.00    -0.01   0.03   0.00
     5   1    -0.36   0.27   0.00    -0.25   0.20   0.00     0.03  -0.02   0.00
     6   1    -0.35  -0.26   0.00    -0.25  -0.20   0.00    -0.03  -0.02   0.00
     7   6    -0.06   0.00   0.00    -0.03   0.00   0.00     0.00   0.14   0.00
     8   1    -0.03   0.22   0.21     0.10  -0.51  -0.22     0.22  -0.52  -0.10
     9   1     0.16  -0.16  -0.35    -0.01   0.44   0.28    -0.19  -0.52  -0.15
    10   1     0.55  -0.05   0.09    -0.37   0.06  -0.07    -0.03  -0.51   0.23
    11   7     0.02   0.00   0.00     0.19   0.00   0.00     0.00  -0.05   0.00
    12   8    -0.02  -0.01   0.00    -0.04  -0.01   0.00     0.00   0.00   0.00
    13   8    -0.02   0.01   0.00    -0.04   0.01   0.00     0.00   0.00   0.00
                     25                     26                     27
                      A                      A                      A
 Frequencies --   1432.1567              1737.8764              1781.7019
 Red. masses --      5.1663                 8.4341                13.1428
 Frc consts  --      6.2433                15.0081                24.5815
 IR Inten    --    282.5553                 4.0995              1942.5026
  Atom  AN      X      Y      Z        X      Y      Z        X      Y      Z
[...]
 Electronic      0.100000D+01          0.000000          0.000000
 Translational   0.459862D+08          7.662628         17.643852
 Rotational      0.275317D+06          5.439833         12.525679
 ***** Axes restored to original set *****
 -------------------------------------------------------------------
 Center     Atomic                   Forces (Hartrees/Bohr)
 Number     Number              X              Y              Z
 -------------------------------------------------------------------
      1        6           0.000043346    0.000090946   -0.000116238
      2        6          -0.000021643    0.000030394   -0.000046508
      3        6          -0.000020617    0.000036800    0.000072731
      4        6           0.000029254   -0.000186138   -0.000132438
      5        1           0.000009600   -0.000004468    0.000002084
      6        1           0.000009596   -0.000004970   -0.000000669
      7        6           0.000017734    0.000020764   -0.000242132
      8        1           0.000014874   -0.000057014    0.000030108
      9        1          -0.000026154    0.000055006    0.000040744
     10        1           0.000025729   -0.000030636    0.000002059
     11        7          -0.000048886    0.000025954    0.000269235
     12        8          -0.000010854    0.000074485    0.000035723
     13        8          -0.000021979   -0.000051124    0.000085300
 -------------------------------------------------------------------
 Cartesian Forces:  Max     0.000269235 RMS     0.000080249
 FormGI is forming the generalized inverse of G from B-inverse, IUseBI=4.

 GradGradGradGradGradGradGradGradGradGradGradGradGradGradGradGradGradGrad
 Berny optimization.
 Internal  Forces:  Max     0.000129897 RMS     0.000040341
 Search for a local minimum.
 Step number   1 out of a maximum of    2
 All quantities printed in internal units (Hartrees-Bohrs-Radians)
 Second derivative matrix not updated -- analytic derivatives used.
 ITU=  0
     Eigenvalues ---    0.00001   0.00370   0.00759   0.00902   0.01797
     Eigenvalues ---    0.02432   0.03677   0.04175   0.04542   0.04554
     Eigenvalues ---    0.08690   0.08869   0.10480   0.10922   0.13171
     Eigenvalues ---    0.14066   0.14309   0.14466   0.16991   0.20014
     Eigenvalues ---    0.25125   0.25623   0.25818   0.26053   0.27420
     Eigenvalues ---    0.28566   0.31331   0.33827   0.40803   0.48185
     Eigenvalues ---    0.69662   0.89363   0.91058
 Quadratic step=8.352D-01 exceeds max=3.000D-01 adjusted using Lamda=-1.293D-05.
 Angle between NR and scaled steps=   0.38 degrees.
 Angle between quadratic step and forces=  88.51 degrees.
 Linear search not attempted -- first point.
 Iteration  1 RMS(Cart)=  0.04935126 RMS(Int)=  0.00228682
 Iteration  2 RMS(Cart)=  0.00237144 RMS(Int)=  0.00000353
 Iteration  3 RMS(Cart)=  0.00000419 RMS(Int)=  0.00000117
 Iteration  4 RMS(Cart)=  0.00000000 RMS(Int)=  0.00000117
 Variable       Old X    -DE/DX   Delta X   Delta X   Delta X     New X
                                 (Linear)    (Quad)   (Total)
    R1        2.86800  -0.00001   0.00000   0.00020   0.00020   2.86820
    R2        2.71335   0.00000   0.00000   0.00006   0.00006   2.71341
    R3        2.27368  -0.00010   0.00000  -0.00022  -0.00022   2.27346
    R4        2.52738   0.00004   0.00000   0.00010   0.00010   2.52749
    R5        2.04257   0.00000   0.00000   0.00000   0.00000   2.04257
    R6        2.86800  -0.00006   0.00000  -0.00047  -0.00047   2.86753
    R7        2.04257   0.00000   0.00000   0.00003   0.00003   2.04260
    R8        2.71335  -0.00002   0.00000  -0.00010  -0.00010   2.71325
    R9        2.27368   0.00006   0.00000   0.00022   0.00022   2.27390
   R10        2.08799   0.00001   0.00000   0.00036   0.00036   2.08835
   R11        2.08799  -0.00003   0.00000  -0.00038  -0.00038   2.08761
   R12        2.08782  -0.00003   0.00000  -0.00018  -0.00018   2.08764
   R13        2.78422  -0.00001   0.00000  -0.00002  -0.00002   2.78420
    A1        1.82873  -0.00001   0.00000  -0.00021  -0.00021   1.82852
    A2        2.26963  -0.00001   0.00000  -0.00031  -0.00031   2.26932
    A3        2.18482   0.00003   0.00000   0.00052   0.00052   2.18534
    A4        1.91610   0.00001   0.00000   0.00008   0.00008   1.91617
    A5        2.09944   0.00000   0.00000   0.00006   0.00006   2.09950
    A6        2.26765  -0.00001   0.00000  -0.00014  -0.00014   2.26751
    A7        1.91610  -0.00002   0.00000  -0.00009  -0.00009   1.91601
    A8        2.26765   0.00001   0.00000  -0.00006  -0.00006   2.26759
    A9        2.09944   0.00002   0.00000   0.00015   0.00015   2.09959
   A10        1.82873   0.00003   0.00000   0.00021   0.00021   1.82894
   A11        2.26963   0.00005   0.00000   0.00077   0.00077   2.27039
   A12        2.18482  -0.00008   0.00000  -0.00097  -0.00097   2.18384
   A13        1.89340   0.00000   0.00000  -0.00019  -0.00019   1.89321
   A14        1.89191   0.00004   0.00000   0.00047   0.00047   1.89239
   A15        1.92562  -0.00012   0.00000  -0.00141  -0.00141   1.92421
   A16        1.89191  -0.00002   0.00000   0.00000   0.00000   1.89191
   A17        1.92562   0.00013   0.00000   0.00186   0.00186   1.92748
   A18        1.93432  -0.00003   0.00000  -0.00072  -0.00072   1.93360
   A19        1.93512   0.00000   0.00000   0.00001   0.00001   1.93512
   A20        2.17394  -0.00012   0.00000  -0.00172  -0.00172   2.17222
   A21        2.17394   0.00012   0.00000   0.00178   0.00178   2.17572
    D1        0.00223   0.00000   0.00000  -0.00005  -0.00005   0.00218
    D2       -3.13903   0.00000   0.00000   0.00012   0.00012  -3.13892
    D3        3.13929   0.00001   0.00000   0.00120   0.00121   3.14049
    D4       -0.00197   0.00001   0.00000   0.00137   0.00137  -0.00061
    D5       -0.00370   0.00001   0.00000   0.00007   0.00007  -0.00363
    D6       -3.12527   0.00000   0.00000  -0.00365  -0.00364  -3.12892
    D7       -3.14105  -0.00001   0.00000  -0.00110  -0.00110   3.14104
    D8        0.02057  -0.00001   0.00000  -0.00482  -0.00482   0.01575
    D9        0.00000   0.00000   0.00000   0.00001   0.00001   0.00001
   D10       -3.14122   0.00001   0.00000   0.00024   0.00024  -3.14098
   D11        3.14122   0.00000   0.00000  -0.00018  -0.00018   3.14104
   D12        0.00000   0.00000   0.00000   0.00005   0.00005   0.00005
   D13       -0.00223   0.00000   0.00000   0.00004   0.00004  -0.00219
   D14       -3.13929   0.00000   0.00000  -0.00104  -0.00104  -3.14033
   D15        3.13903   0.00000   0.00000  -0.00017  -0.00017   3.13886
   D16        0.00197  -0.00001   0.00000  -0.00124  -0.00124   0.00073
   D17        0.00370   0.00000   0.00000  -0.00007  -0.00007   0.00363
   D18        3.12527   0.00000   0.00000   0.00361   0.00361   3.12888
   D19        3.14105   0.00000   0.00000   0.00095   0.00094  -3.14120
   D20       -0.02057   0.00000   0.00000   0.00462   0.00462  -0.01595
   D21       -2.74887  -0.00002   0.00000  -0.12060  -0.12060  -2.86947
   D22        0.41544  -0.00002   0.00000  -0.12480  -0.12480   0.29064
   D23       -0.65697  -0.00001   0.00000  -0.12056  -0.12056  -0.77753
   D24        2.50734  -0.00001   0.00000  -0.12475  -0.12475   2.38259
   D25        1.43867   0.00003   0.00000  -0.11981  -0.11981   1.31886
   D26       -1.68020   0.00002   0.00000  -0.12400  -0.12400  -1.80421
         Item               Value     Threshold  Converged?
 Maximum Force            0.000130     0.000450     YES
 RMS     Force            0.000040     0.000300     YES
 Maximum Displacement     0.201506     0.001800     NO 
 RMS     Displacement     0.049353     0.001200     NO 
 Predicted change in Energy=-1.803501D-06
 GradGradGradGradGradGradGradGradGradGradGradGradGradGradGradGradGradGrad

 1\1\GINC-D10S0B4\Freq\RPM6\ZDO\C5H5N1O2\CHMKSH\23-Jul-2020\0\\#N Geom=
 AllCheck Guess=TCheck SCRF=Check GenChk RPM6/ZDO Freq\\Title Card Requ
 ired\\0,1\C,0.002701,-0.214927,-1.182421\C,0.009976,-1.643008,-0.66871
 7\C,0.009976,-1.643008,0.668717\C,0.002701,-0.214927,1.182421\H,0.0145
 07,-2.471891,-1.362433\H,0.014507,-2.471891,1.362433\C,-0.024549,2.072
 757,0.\H,0.37592428,2.46381614,0.95264483\H,0.5919266,2.4676574,-0.827
 55651\H,-1.05647639,2.44731372,-0.12440163\N,0.001648,0.599644,0.\O,0.
 002701,0.201635,2.311191\O,0.002701,0.201635,-2.311191\\Version=ES64L-
 G09RevD.01\State=1-A\HF=-0.0897357\RMSD=6.792e-10\RMSF=8.025e-05\ZeroP
 oint=0.088183\Thermal=0.0958011\Dipole=-0.0006975,-0.5430257,0.0039616
 \DipoleDeriv=0.7678105,-0.0029422,-0.0069909,-0.0070715,1.2245869,-0.1
 220317,-0.0073013,0.3555285,3.2979935,-0.2938405,0.001542,0.003678,0.0
 022733,-0.5226678,0.2538828,-0.0007957,-0.0957947,-0.54726,-0.2924835,
 0.0015841,-0.0037907,0.0022458,-0.5219368,-0.2533536,0.0008224,0.09599
 33,-0.5463168,0.7626174,-0.0029594,0.0074634,-0.007168,1.2245292,0.115
 3004,0.0071765,-0.3570561,3.302306,0.2166943,-0.0006356,-0.0008942,-0.
 0008183,0.3124125,0.1803975,-0.0009626,0.1853785,0.2857346,0.216956,-0
 .0006308,0.0009122,-0.000822,0.3123402,-0.1807759,0.0009579,-0.1853145
 ,0.2857338,-0.322549,-0.0184724,0.0007952,-0.0526862,0.0420394,-0.0147
 19,0.0004337,-0.0035615,-0.5327667,0.2075366,0.0352248,0.01478,0.03579
 22,0.1424775,0.0328067,0.0146844,0.0653909,0.2220694,0.2082401,0.05021
 37,-0.0214209,0.0521893,0.1345857,-0.0254093,-0.0197379,-0.0532189,0.2
 074891,0.2200959,-0.0627589,0.005984,-0.0717069,0.1095978,-0.0020291,0
 .0048402,-0.0059239,0.166693,-0.7139459,-0.0039045,-0.000577,0.0423076
 ,-1.1512746,0.0152504,-0.0000938,-0.0026336,-2.4074396,-0.4892127,0.00
 17815,0.0002966,0.002837,-0.653897,-0.4504592,-0.0023196,-0.0336292,-1
 .8688726,-0.4879176,0.0019475,-0.0002359,0.0026309,-0.6527924,0.451139
 7,0.002296,0.0348449,-1.8653273\Polar=15.5609151,-0.4284149,57.4980237
 ,-0.0037416,-0.1111818,124.6311499\HyperPolar=-6.6869972,17.1888169,-3
 .3372084,-12.1328075,-1.8149018,0.0142106,-0.9776852,9.5300011,-288.74
 61723,9.3681653\PG=C01 [X(C5H5N1O2)]\NImag=0\\0.14976650,-0.00083959,0
 .49631618,-0.00002509,-0.22205711,0.94222152,-0.07442985,0.00048909,-0
 .00042080,0.12828044,0.00042397,-0.16714805,0.04554702,-0.00177961,0.4
 7813277,-0.00012970,0.02505448,-0.05683126,-0.00047305,0.06787926,0.85
 764512,0.00742218,0.00023517,-0.00000512,-0.05691063,0.00002934,-0.000
 05666,0.12830863,0.00019816,-0.02817479,0.03582779,0.00002890,-0.05042
 965,0.00939397,-0.00177988,0.47811916,-0.00018949,0.03302132,-0.037605
 91,0.00005637,-0.00937386,-0.59586754,0.00047432,-0.06791228,0.8576320
 6,-0.01243582,-0.00050326,-0.00043826,0.00742598,0.00020005,0.00019004
 ,-0.07444804,0.00042466,0.00013079,0.14940574,-0.00049657,0.06458367,0
 .02825518,0.00023463,-0.02818724,-0.03302823,0.00048586,-0.16715115,-0
 .02501003,-0.00086539,0.49690223,0.00042772,-0.02816136,-0.11893296,0.
 00000631,-0.03584194,-0.03759596,0.00042267,-0.04555622,-0.05685666,0.
 00003228,0.22242629,0.94228479,0.00762556,0.00020741,0.00005086,-0.041
 76768,0.00055792,0.00053091,0.00658945,-0.00000348,0.00002036,0.009578
 17,0.00009627,0.00000762,0.02282476,0.00020922,-0.03212395,-0.00707558
 ,0.00055693,-0.14470319,-0.09346742,0.00001506,0.00336382,-0.00792426,
 0.00008206,-0.00449628,0.00029719,-0.00082982,0.17642267,-0.00000504,0
 .00041282,0.00886033,0.00051633,-0.09243375,-0.11163232,0.00012183,-0.
 02231874,-0.03090851,0.00000462,-0.00119961,-0.00398799,-0.00061271,0.
 11095386,0.13918991,0.00957760,0.00009583,-0.00000795,0.00659607,-0.00
 000354,-0.00002058,-0.04176978,0.00055816,-0.00053096,0.00762543,0.000
 20756,-0.00005114,-0.00140175,-0.00001333,-0.00000221,0.02282253,0.000
 08230,-0.00449490,-0.00029803,0.00001519,0.00336388,0.00792596,0.00055
 681,-0.14470033,0.09346364,0.00020875,-0.03212790,0.00707615,-0.000013
 34,0.00109044,0.00052009,-0.00082981,0.17642434,-0.00000500,0.00119937
 ,-0.00398775,-0.00012186,0.02231918,-0.03090856,-0.00051631,0.09243829
 ,-0.11163199,0.00000542,-0.00042226,0.00885873,0.00000222,-0.00052008,
 -0.00083784,0.00061272,-0.11095202,0.13919188,-0.00841698,-0.00040438,
 -0.00048789,0.00366773,-0.00013096,-0.00021819,0.00381153,-0.00013465,
 0.00022168,-0.00876620,-0.00041623,0.00048785,0.00009754,-0.00002864,0
 .00005230,0.00011383,-0.00002920,-0.00005271,0.37743925,-0.00012241,-0
 .02036780,-0.01077855,0.00007755,0.00069114,-0.00040642,0.00007992,0.0
 0070939,0.00044842,-0.00012626,-0.02063174,0.01074457,0.00000238,0.000
 01406,-0.00001181,0.00000259,0.00001520,0.00001155,-0.00253212,0.45578
 247,-0.00001848,-0.01765699,0.00436654,0.00014402,-0.00451762,-0.00335
 763,-0.00014771,0.00449341,-0.00322090,0.00003585,0.01744657,0.0045445
 2,0.00002058,-0.00079841,0.00068537,-0.00001984,0.00078168,0.00065684,
 0.00002194,-0.00033028,0.41627399,0.00043930,0.00027288,-0.00077757,-0
 .00003690,0.00026850,0.00014829,-0.00010967,0.00016807,-0.00006708,0.0
 0109725,-0.00067927,0.00069381,0.00001629,-0.00000648,-0.00006413,0.00
 001559,-0.00001906,0.00005743,-0.05746476,-0.02297459,-0.05734252,0.06
 184188,-0.00138476,-0.00306908,0.00145066,0.00032910,-0.00090981,-0.00
 077624,0.00021560,0.00073155,-0.00037931,-0.00133379,-0.00415878,0.001
 62633,0.00001942,-0.00018814,0.00013334,0.00000148,0.00009827,0.000120
 42,-0.02078631,-0.05106891,-0.04650815,0.02930749,0.08076663,-0.000173
 41,-0.00016046,-0.00145080,-0.00002391,0.00060549,0.00011248,-0.000016
 09,0.00029238,-0.00026604,0.00013206,0.00093529,0.00407621,-0.00000605
 ,-0.00000427,-0.00010335,0.00000038,-0.00004000,0.00009307,-0.05687329
 ,-0.05501786,-0.16889075,0.07011647,0.07070027,0.19832569,0.00094096,-
 0.00084452,-0.00108026,-0.00010028,0.00026216,0.00010165,-0.00007221,0
 .00038598,-0.00019823,0.00042577,0.00030917,0.00118068,0.00001640,-0.0
 0002832,-0.00008434,0.00001393,-0.00001320,0.00009147,-0.09040629,-0.0
 3556256,0.07636420,0.00588247,0.00122114,-0.00244185,0.10228055,-0.001
 93332,-0.00336826,-0.00149499,0.00034381,0.00060632,0.00034215,0.00050
 209,-0.00082204,0.00066675,-0.00213614,-0.00283849,-0.00136653,0.00000
 333,0.00008809,-0.00010230,0.00002688,-0.00016188,-0.00011740,-0.03213
 855,-0.05108296,0.04055835,0.00191975,0.00443940,-0.00264693,0.0456029
 6,0.08099420,-0.00023994,-0.00102891,0.00350349,0.00002998,-0.00025045
 ,-0.00021935,0.00002663,-0.00051244,0.00007125,0.00022103,0.00032165,-
 0.00117120,-0.00000007,0.00003624,0.00007614,0.00000608,0.00000452,-0.
 00008331,0.07591291,0.04814947,-0.13575295,0.00970226,0.00316278,-0.02
 348639,-0.09370052,-0.06180330,0.15765588,0.00051954,0.00037431,0.0018
 8753,-0.00009812,-0.00046687,-0.00017419,-0.00010855,-0.00049070,0.000
 18915,0.00043492,0.00019334,-0.00191485,0.00001284,0.00003794,0.000117
 08,0.00001133,0.00003541,-0.00011774,-0.19181810,0.05558860,-0.0190279
 4,-0.01325541,0.00114621,-0.00847488,-0.01966657,0.00165454,0.00479714
 ,0.22784972,0.00304233,-0.00173779,0.00007397,-0.00068842,-0.00003350,
 0.00003582,-0.00073200,-0.00024693,0.00011462,0.00320233,-0.00186118,-
 0.00055356,-0.00002105,0.00000993,-0.00000839,-0.00002671,-0.00002781,
 -0.00002367,0.04954974,-0.04784250,0.00558833,-0.00332790,0.00470361,-
 0.00057043,-0.00341772,0.00482985,-0.00017718,-0.07257964,0.07662457,0
 .00036471,-0.00101766,0.00110237,-0.00005711,0.00000658,-0.00009555,0.
 00004135,-0.00010885,-0.00006788,-0.00032767,0.00093005,0.00042932,-0.
 00000329,0.00001343,0.00000977,0.00000223,-0.00000681,-0.00000816,-0.0
 1902907,0.00681588,-0.03665272,-0.02089998,0.00246260,-0.00467895,0.01
 731357,-0.00204513,0.00162361,0.02354811,-0.00881942,0.03528521,-0.034
 46850,0.00094033,0.00126685,0.01174095,0.00042016,0.00028030,0.0116484
 9,0.00042664,-0.00028322,-0.03390350,0.00094036,-0.00125902,-0.0018214
 1,0.00002832,-0.00004389,-0.00183361,0.00002924,0.00004467,-0.03119681
 ,0.00525803,-0.00003843,0.00215222,-0.00908132,-0.00209077,0.00118728,
 -0.01431735,0.00302397,-0.00353121,0.02563165,-0.00090601,0.05999392,0
 .00103638,-0.15359912,-0.10351040,0.00024263,-0.06397898,-0.02116298,0
 .00024082,-0.06399513,0.02112085,0.00105765,-0.15330273,0.10346134,0.0
 0000176,-0.00174895,0.00343185,0.00000145,-0.00174959,-0.00342983,0.00
 723578,-0.26539251,0.00077745,-0.00496670,-0.03229098,-0.01263325,-0.0
 0798362,-0.03335663,0.01103551,0.01461239,-0.03510443,0.00160714,-0.01
 097099,0.77223352,-0.00003022,-0.05995509,-0.12685030,0.00032337,-0.02
 117830,0.00791939,-0.00032398,0.02116797,0.00788473,0.00002505,0.05986
 469,-0.12721521,-0.00000647,-0.00071820,-0.00007186,0.00000712,0.00072
 855,-0.00006803,-0.00004490,0.00036584,-0.07398361,-0.00171665,-0.0313
 2797,-0.00294694,0.00259823,0.02744694,-0.00148008,-0.00085259,0.00419
 612,0.00351945,0.00001289,-0.00077356,0.54761478,0.00581864,0.00008202
 ,0.00004118,-0.00057932,0.00000916,-0.00001991,0.01621144,0.00020774,0
 .00015692,-0.05224545,-0.00009146,0.00000851,-0.00123484,-0.00001551,0
 .00000146,-0.00053432,-0.00000724,0.00000094,0.00149680,0.00015061,0.0
 0004875,-0.00048319,0.00021623,-0.00018259,-0.00010570,0.00020178,-0.0
 0004892,-0.00016161,-0.00031048,0.00013464,0.00995673,-0.00025644,-0.0
 0002605,0.02318415,-0.00003790,-0.00615268,0.00491129,0.00005105,-0.00
 326783,-0.00153194,0.00010052,-0.02413415,-0.03974899,-0.00017453,-0.1
 4061893,-0.22919697,-0.00001470,0.00122205,-0.00022518,-0.00000625,0.0
 0104950,-0.00085086,-0.00008824,-0.00033851,0.00249927,0.00003904,0.00
 055678,-0.00155656,-0.00000119,0.00038424,-0.00013076,-0.00003270,0.00
 034791,-0.00045183,0.00035068,0.01605541,0.00778459,-0.00019394,0.1528
 5064,0.00001538,0.01590616,0.02274990,0.00006405,-0.00351740,0.0005981
 9,0.00004315,-0.03072897,-0.02975242,-0.00000072,-0.25463078,-0.637124
 56,-0.00000662,0.00079595,0.00063294,-0.00000255,0.00159039,-0.0019091
 2,-0.00025050,0.00153226,-0.00241751,-0.00017454,-0.00077990,-0.001330
 94,-0.00050262,-0.00010768,0.00044948,0.00080405,-0.00023076,-0.000129
 14,0.00012290,0.01130604,-0.11716409,-0.00011362,0.25868339,0.77810300
 ,-0.05235878,-0.00010478,-0.00000623,0.01621137,0.00020958,-0.00015879
 ,-0.00057306,0.00001027,0.00001927,0.00580614,0.00008226,-0.00003972,-
 0.00053546,-0.00000746,-0.00000132,-0.00123699,-0.00001586,-0.00000121
 ,0.00144250,0.00015817,-0.00004043,-0.00009513,0.00012949,0.00003395,-
 0.00039631,0.00027020,0.00026943,-0.00018882,-0.00032218,-0.00018151,0
 .01007577,-0.00025024,0.00003421,-0.00132348,0.00000743,-0.00000041,0.
 02317210,-0.00017770,-0.14066411,0.22914870,0.00009913,-0.02413596,0.0
 3974204,0.00005067,-0.00326991,0.00151267,-0.00003604,-0.00611212,-0.0
 0495523,-0.00000610,0.00104951,0.00084794,-0.00001431,0.00122084,0.000
 22718,-0.00009629,-0.00048661,-0.00233359,-0.00000174,0.00038933,0.000
 09642,0.00006968,0.00028803,0.00119279,-0.00007277,0.00033820,0.000614
 02,0.00034420,0.01623063,-0.00760155,0.00000749,0.00204586,0.00018124,
 -0.00016694,0.15310660,0.00000854,0.25444239,-0.63714604,-0.00004371,0
 .03075566,-0.02976730,-0.00006410,0.00352387,0.00058951,-0.00001037,-0
 .01588803,0.02268958,0.00000264,-0.00158831,-0.00191258,0.00000670,-0.
 00079426,0.00063423,0.00025989,-0.00152281,-0.00225148,0.00032432,0.00
 011480,0.00054683,0.00035793,0.00067042,-0.00118651,-0.00078087,0.0003
 7452,-0.00033735,-0.00013037,-0.01123030,-0.11715539,-0.00000133,-0.00
 018530,-0.01270541,0.00007279,-0.25867264,0.77800177\\-0.00004335,-0.0
 0009095,0.00011624,0.00002164,-0.00003039,0.00004651,0.00002062,-0.000
 03680,-0.00007273,-0.00002925,0.00018614,0.00013244,-0.00000960,0.0000
 0447,-0.00000208,-0.00000960,0.00000497,0.00000067,-0.00001773,-0.0000
 2076,0.00024213,-0.00001487,0.00005701,-0.00003011,0.00002615,-0.00005
 501,-0.00004074,-0.00002573,0.00003064,-0.00000206,0.00004889,-0.00002
 595,-0.00026924,0.00001085,-0.00007449,-0.00003572,0.00002198,0.000051
 12,-0.00008530\\\@


 WHEN ALL ELSE FAILS, TRY THE BOSS'S SUGGESTION.
 Job cpu time:       0 days  0 hours  0 minutes 11.5 seconds.
 File lengths (MBytes):  RWF=     27 Int=      0 D2E=      0 Chk=      7 Scr=      1
 Normal termination of Gaussian 09 at Thu Jul 23 01:48:28 2020.
