 Entering Gaussian System, Link 0=g09
 Input=TS2_scan2_diene_dienophile_pm6_cpcmtoluene_2.com
 Output=TS2_scan2_diene_dienophile_pm6_cpcmtoluene_2.log
 Initial command:
 /apps/applications/gaussian/G09.D01/2/default/g09/l1.exe "/local/648240.1.40core-192G.q/Gau-83684.inp" -scrdir="/local/648240.1.40core-192G.q/"
 Entering Link 1 = /apps/applications/gaussian/G09.D01/2/default/g09/l1.exe PID=     83686.
  
 Copyright (c) 1988,1990,1992,1993,1995,1998,2003,2009,2013,
            Gaussian, Inc.  All Rights Reserved.
  
 This is part of the Gaussian(R) 09 program.  It is based on
 the Gaussian(R) 03 system (copyright 2003, Gaussian, Inc.),
 the Gaussian(R) 98 system (copyright 1998, Gaussian, Inc.),
 the Gaussian(R) 94 system (copyright 1995, Gaussian, Inc.),
 the Gaussian 92(TM) system (copyright 1992, Gaussian, Inc.),
 the Gaussian 90(TM) system (copyright 1990, Gaussian, Inc.),
 the Gaussian 88(TM) system (copyright 1988, Gaussian, Inc.),
 the Gaussian 86(TM) system (copyright 1986, Carnegie Mellon
 University), and the Gaussian 82(TM) system (copyright 1983,
 Carnegie Mellon University). Gaussian is a federally registered
 trademark of Gaussian, Inc.
  
 This software contains proprietary and confidential information,
 including trade secrets, belonging to Gaussian, Inc.
  
 This software is provided under written license and may be
 used, copied, transmitted, or stored only in accord with that
 written license.
  
 The following legend is applicable only to US Government
 contracts under FAR:
  
                    RESTRICTED RIGHTS LEGEND
  
 Use, reproduction and disclosure by the US Government is
 subject to restrictions as set forth in subparagraphs (a)
 and (c) of the Commercial Computer Software - Restricted
 Rights clause in FAR 52.227-19.
  
 Gaussian, Inc.
 340 Quinnipiac St., Bldg. 40, Wallingford CT 06492
  
  
 ---------------------------------------------------------------
 Warning -- This program may not be used in any manner that
 competes with the business of Gaussian, Inc. or will provide
 assistance to any competitor of Gaussian, Inc.  The licensee
 of this program is prohibited from giving any competitor of
 Gaussian, Inc. access to this program.  By using this program,
 the user acknowledges that Gaussian, Inc. is engaged in the
 business of creating and licensing software in the field of
 computational chemistry and represents and warrants to the
 licensee that it is not a competitor of Gaussian, Inc. and that
 it will not use this program in any manner prohibited above.
 ---------------------------------------------------------------
  

 Cite this work as:
 Gaussian 09, Revision D.01,
 M. J. Frisch, G. W. Trucks, H. B. Schlegel, G. E. Scuseria, 
 M. A. Robb, J. R. Cheeseman, G. Scalmani, V. Barone, B. Mennucci, 
 G. A. Petersson, H. Nakatsuji, M. Caricato, X. Li, H. P. Hratchian, 
 A. F. Izmaylov, J. Bloino, G. Zheng, J. L. Sonnenberg, M. Hada, 
 M. Ehara, K. Toyota, R. Fukuda, J. Hasegawa, M. Ishida, T. Nakajima, 
 Y. Honda, O. Kitao, H. Nakai, T. Vreven, J. A. Montgomery, Jr., 
 J. E. Peralta, F. Ogliaro, M. Bearpark, J. J. Heyd, E. Brothers, 
 K. N. Kudin, V. N. Staroverov, T. Keith, R. Kobayashi, J. Normand, 
 K. Raghavachari, A. Rendell, J. C. Burant, S. S. Iyengar, J. Tomasi, 
 M. Cossi, N. Rega, J. M. Millam, M. Klene, J. E. Knox, J. B. Cross, 
 V. Bakken, C. Adamo, J. Jaramillo, R. Gomperts, R. E. Stratmann, 
 O. Yazyev, A. J. Austin, R. Cammi, C. Pomelli, J. W. Ochterski, 
 R. L. Martin, K. Morokuma, V. G. Zakrzewski, G. A. Voth, 
 P. Salvador, J. J. Dannenberg, S. Dapprich, A. D. Daniels, 
 O. Farkas, J. B. Foresman, J. V. Ortiz, J. Cioslowski, 
 and D. J. Fox, Gaussian, Inc., Wallingford CT, 2013.
 
 ******************************************
 Gaussian 09:  ES64L-G09RevD.01 24-Apr-2013
                24-Jul-2020 
 ******************************************
 %nprocshared=4
 Will use up to    4 processors via shared memory.
 ----------------------------------------------------------------------
 # opt=(calcall,qst3) pm6 scrf=(cpcm,solvent=toluene) geom=connectivity
  empiricaldispersion=gd3
 ----------------------------------------------------------------------
 1/5=1,10=4,14=-1,18=20,26=1,27=203,38=1,57=2/1,3;
 2/9=110,12=2,17=6,18=5,40=1/2;
 3/5=2,16=1,25=1,41=3900000,70=2101,71=2,72=13,124=31,140=1/1,2,3;
 4/35=1/1;
 5/5=2,35=1,38=5,53=13/2;
 8/6=4,10=90,11=11/1;
 11/6=1,8=1,9=11,15=111,16=1/1,2,10;
 10/6=1/2;
 6/7=2,8=2,9=2,10=2,18=1,28=1/1;
 7/10=1,25=1/1,2,3,16;
 1/5=1,10=4,14=-1,18=20,26=1,27=203/3(3);
 2/9=110/2;
 7/8=1,9=1,25=1,44=-1/16;
 99//99;
 2/9=110/2;
 3/5=2,16=1,25=1,41=3900000,70=2105,71=2,72=13,124=31,135=20,140=1/1,2,3;
 4/5=5,16=3,35=1/1;
 5/5=2,35=1,38=5,53=13/2;
 8/6=4,10=90,11=11/1;
 11/6=1,8=1,9=11,15=111,16=1/1,2,10;
 10/6=1/2;
 7/10=1,25=1/1,2,3,16;
 1/5=1,10=4,14=-1,18=20,26=1,27=203/3(-8);
 2/9=110/2;
 6/7=2,8=2,9=2,10=2,18=1,19=2,28=1/1;
 7/8=1,9=1,25=1,44=-1/16;
 99//99;
 -------------------
 Title Card Required
 -------------------
 Symbolic Z-matrix:
 Charge =  0 Multiplicity = 1
 C                    -2.56875  -2.14164  -0.7193 
 C                    -1.33927  -1.57678  -1.40314 
 C                    -0.90299  -0.50279  -0.73634 
 C                    -1.79984  -0.2438    0.45933 
 H                    -0.94842  -2.04305  -2.297 
 H                    -0.05453   0.14873  -0.93653 
 C                    -3.88161  -1.43699   1.3862 
 H                    -4.32039  -0.45649   1.64352 
 H                    -4.67738  -2.078     0.96393 
 H                    -3.51241  -1.90927   2.31395 
 N                    -2.79028  -1.27398   0.41069 
 O                    -1.73891   0.62375   1.29738 
 O                    -3.25436  -3.08883  -0.99805 
 C                     3.80328  -0.76234  -0.40225 
 H                     4.51036  -0.63473  -1.22647 
 C                     2.80018   0.29792  -0.29575 
 H                     2.5155    0.76076  -1.24914 
 C                     3.86842  -1.82609   0.41146 
 H                     3.15677  -1.96891   1.22798 
 C                     4.88887  -2.90191   0.27895 
 H                     4.41505  -3.87859   0.09901 
 H                     5.597    -2.73215  -0.54346 
 H                     5.48291  -2.99987   1.20008 
 C                     2.25593   0.71465   0.85477 
 H                     2.53451   0.2873    1.8211 
 C                     1.23455   1.79963   0.96189 
 H                     1.65554   2.71972   1.4088 
 H                     0.33778   1.46601   1.52649 
 C                    -0.21956   3.00643  -0.63662 
 C                    -0.93256   3.60841   0.51483 
 H                    -0.27282   4.19976   1.16755 
 H                    -1.73602   4.28568   0.17877 
 H                    -1.41457   2.83655   1.14804 
 O                     0.82074   2.12215  -0.40571 
 O                    -0.44956   3.1812   -1.81432 
 
 Add virtual bond connecting atoms H28        and O12        Dist= 4.26D+00.
 Add virtual bond connecting atoms H33        and O12        Dist= 4.24D+00.
 Add virtual bond connecting atoms O34        and H6         Dist= 4.20D+00.
 -------------------
 Title Card Required
 -------------------
 Symbolic Z-matrix:
 Charge =  0 Multiplicity = 1
 C                    -2.8838    0.25434  -0.21289 
 C                    -1.55436   0.84508  -0.69982 
 C                    -0.56497  -0.3506   -0.74793 
 C                    -1.35188  -1.55891  -0.21953 
 H                    -1.71106   1.22821  -1.74056 
 H                    -0.30769  -0.56493  -1.81827 
 C                    -3.74087  -2.02894   0.55319 
 H                    -3.74036  -2.04033   1.65752 
 H                    -4.73409  -1.69037   0.20856 
 H                    -3.5775   -3.06087   0.19453 
 N                    -2.68621  -1.13345   0.0376 
 O                    -0.9636   -2.69034  -0.05331 
 O                    -3.94196   0.81844  -0.06184 
 C                    -0.34999   1.59282   1.39694 
 H                    -0.50794   2.16365   2.31074 
 C                     0.5181    0.58157   1.32969 
 H                     1.1237    0.26921   2.17852 
 C                    -1.16384   2.03736   0.20996 
 H                    -2.11818   2.50324   0.58188 
 C                    -0.40148   3.10848  -0.57741 
 H                    -0.99083   3.49567  -1.41593 
 H                    -0.14733   3.96192   0.06382 
 H                     0.54738   2.72142  -0.98507 
 C                     0.73978  -0.19489   0.06057 
 H                     1.11307  -1.22561   0.32029 
 C                     1.81467   0.48456  -0.80829 
 H                     1.61187   1.56807  -0.96867 
 H                     1.9634   -0.03006  -1.77348 
 C                     3.87741  -0.59967  -0.09959 
 C                     5.08381  -0.34058   0.72418 
 H                     5.16079  -1.06659   1.55162 
 H                     6.00385  -0.4412    0.12361 
 H                     5.09038   0.66785   1.17032 
 O                     3.07441   0.52278  -0.08335 
 O                     3.56722  -1.58951  -0.72362 
 
 -------------------
 Title Card Required
 -------------------
 Symbolic Z-matrix:
 Charge =  0 Multiplicity = 1
 C                     2.23629  -0.94684  -0.69969 
 C                     1.27893   0.06734  -1.1527 
 C                     0.00577  -0.19332  -0.67094 
 C                     0.06832  -1.56836   0.01692 
 H                     1.56635   0.8409   -1.84203 
 H                    -0.91886   0.10701  -1.16564 
 C                     1.96508  -3.17883   0.60281 
 H                     1.39103  -4.05896   0.26353 
 H                     3.02112  -3.31498   0.30515 
 H                     1.91594  -3.1349    1.70461 
 N                     1.43151  -1.94454   0.00311 
 O                    -0.84125  -2.22429   0.47923 
 O                     3.43499  -1.05047  -0.81281 
 C                     1.57393   2.70563   0.0286 
 H                     1.73723   3.61985  -0.55038 
 C                     0.22663   2.40393   0.38235 
 H                    -0.54541   3.12544   0.07916 
 C                     2.61333   1.86859   0.29886 
 H                     2.49594   1.01398   0.97656 
 C                     3.9842    2.066    -0.22252 
 H                     4.34882   1.15011  -0.7255 
 H                     4.07379   2.88635  -0.94831 
 H                     4.70019   2.27396   0.59002 
 C                    -0.16821   1.19925   0.94523 
 H                     0.54534   0.63259   1.56545 
 C                    -1.59754   1.05263   1.41261 
 H                    -1.8061    1.68563   2.29875 
 H                    -1.86393   0.0022    1.64099 
 C                    -3.4992    0.90384  -0.19889 
 C                    -3.83588  -0.45241   0.28787 
 H                    -4.38812  -0.42159   1.24161 
 H                    -4.48166  -0.98713  -0.42919 
 H                    -2.94789  -1.0987    0.45181 
 O                    -2.45413   1.61095   0.37816 
 O                    -4.05441   1.52689  -1.07786 
 

 GradGradGradGradGradGradGradGradGradGradGradGradGradGradGradGradGradGrad
 Berny optimization.
 Initialization pass.
                           ----------------------------
                           !    Initial Parameters    !
                           ! (Angstroms and Degrees)  !
 --------------------------                            --------------------------
 ! Name  Definition        TS        Reactant  Product Derivative Info.         !
 --------------------------------------------------------------------------------
 ! R1    R(1,2)             1.4664    1.516     1.5341 calculate D2E/DX2 analyti!
 ! R2    R(1,11)            1.4619    1.4418    1.424  calculate D2E/DX2 analyti!
 ! R3    R(1,13)            1.2085    1.202     1.2086 calculate D2E/DX2 analyti!
 ! R4    R(2,3)             1.386     1.3373    1.5527 calculate D2E/DX2 analyti!
 ! R5    R(2,5)             1.0753    1.0813    1.12   calculate D2E/DX2 analyti!
 ! R6    R(2,18)            2.6706    5.5204    1.5498 calculate D2E/DX2 analyti!
 ! R7    R(3,4)             1.5388    1.5169    1.5357 calculate D2E/DX2 analyti!
 ! R8    R(3,6)             1.0908    1.0883    1.1215 calculate D2E/DX2 analyti!
 ! R9    R(3,24)            2.1405    3.7407    1.5428 calculate D2E/DX2 analyti!
 ! R10   R(4,11)            1.4142    1.4299    1.4239 calculate D2E/DX2 analyti!
 ! R11   R(4,12)            1.213     1.2078    1.2077 calculate D2E/DX2 analyti!
 ! R12   R(6,34)            2.6462    2.2231    3.9537 calculate D2E/DX2 analyti!
 ! R13   R(7,8)             1.1042    1.1046    1.1044 calculate D2E/DX2 analyti!
 ! R14   R(7,9)             1.1056    1.1056    1.1045 calculate D2E/DX2 analyti!
 ! R15   R(7,10)            1.1038    1.1046    1.1046 calculate D2E/DX2 analyti!
 ! R16   R(7,11)            1.4723    1.4728    1.4765 calculate D2E/DX2 analyti!
 ! R17   R(12,28)           2.7116    2.2527    4.3132 calculate D2E/DX2 analyti!
 ! R18   R(12,33)           2.3886    2.2414    7.0303 calculate D2E/DX2 analyti!
 ! R19   R(14,15)           1.0944    1.0934    1.089  calculate D2E/DX2 analyti!
 ! R20   R(14,16)           1.4253    1.4635    1.3344 calculate D2E/DX2 analyti!
 ! R21   R(14,18)           1.3616    1.3409    1.5063 calculate D2E/DX2 analyti!
 ! R22   R(16,17)           1.0993    1.0974    1.0885 calculate D2E/DX2 analyti!
 ! R23   R(16,24)           1.3871    1.3392    1.5042 calculate D2E/DX2 analyti!
 ! R24   R(18,19)           1.097     1.0925    1.1252 calculate D2E/DX2 analyti!
 ! R25   R(18,20)           1.4799    1.4887    1.5325 calculate D2E/DX2 analyti!
 ! R26   R(20,21)           1.1067    1.1004    1.0956 calculate D2E/DX2 analyti!
 ! R27   R(20,22)           1.099     1.0985    1.0973 calculate D2E/DX2 analyti!
 ! R28   R(20,23)           1.1028    1.1004    1.1029 calculate D2E/DX2 analyti!
 ! R29   R(24,25)           1.1022    1.0927    1.1266 calculate D2E/DX2 analyti!
 ! R30   R(24,26)           1.5109    1.4939    1.5401 calculate D2E/DX2 analyti!
 ! R31   R(26,27)           1.1088    1.1061    1.1139 calculate D2E/DX2 analyti!
 ! R32   R(26,28)           1.1075    1.111     1.1039 calculate D2E/DX2 analyti!
 ! R33   R(26,34)           1.4545    1.4648    1.4539 calculate D2E/DX2 analyti!
 ! R34   R(29,30)           1.4798    1.4821    1.4836 calculate D2E/DX2 analyti!
 ! R35   R(29,34)           1.3875    1.3847    1.3802 calculate D2E/DX2 analyti!
 ! R36   R(29,35)           1.212     1.2126    1.2105 calculate D2E/DX2 analyti!
 ! R37   R(30,31)           1.1025    1.1005    1.1035 calculate D2E/DX2 analyti!
 ! R38   R(30,32)           1.1032    1.1033    1.1033 calculate D2E/DX2 analyti!
 ! R39   R(30,33)           1.1104    1.1086    1.1027 calculate D2E/DX2 analyti!
 ! A1    A(2,1,11)        105.1366  104.7087  108.112  calculate D2E/DX2 analyti!
 ! A2    A(2,1,13)        132.6856  130.6591  128.2179 calculate D2E/DX2 analyti!
 ! A3    A(11,1,13)       122.1776  124.6321  123.6674 calculate D2E/DX2 analyti!
 ! A4    A(1,2,3)         111.2394  109.8093  105.3966 calculate D2E/DX2 analyti!
 ! A5    A(1,2,5)         121.4061  120.3557  107.7834 calculate D2E/DX2 analyti!
 ! A6    A(1,2,18)         88.4158  126.8665  109.1648 calculate D2E/DX2 analyti!
 ! A7    A(3,2,5)         127.1333  129.8349  108.8915 calculate D2E/DX2 analyti!
 ! A8    A(3,2,18)        113.3845   64.1904  116.7473 calculate D2E/DX2 analyti!
 ! A9    A(5,2,18)         74.3155   84.9091  108.5163 calculate D2E/DX2 analyti!
 ! A10   A(2,3,4)         106.6244  109.7097  105.5885 calculate D2E/DX2 analyti!
 ! A11   A(2,3,6)         124.6966  130.0449  108.8391 calculate D2E/DX2 analyti!
 ! A12   A(2,3,24)        102.4016  138.5005  116.4188 calculate D2E/DX2 analyti!
 ! A13   A(4,3,6)         118.8959  120.2454  107.1908 calculate D2E/DX2 analyti!
 ! A14   A(4,3,24)        104.309    96.2253  109.4168 calculate D2E/DX2 analyti!
 ! A15   A(6,3,24)         95.4169   39.1986  108.9909 calculate D2E/DX2 analyti!
 ! A16   A(3,4,11)        105.8143  105.0525  107.8902 calculate D2E/DX2 analyti!
 ! A17   A(3,4,12)        128.5444  129.7736  128.2969 calculate D2E/DX2 analyti!
 ! A18   A(11,4,12)       125.6403  125.1739  123.8037 calculate D2E/DX2 analyti!
 ! A19   A(3,6,34)        112.5629  142.6012   74.0301 calculate D2E/DX2 analyti!
 ! A20   A(8,7,9)         108.4023  108.5237  108.396  calculate D2E/DX2 analyti!
 ! A21   A(8,7,10)        108.3786  108.4602  108.3588 calculate D2E/DX2 analyti!
 ! A22   A(8,7,11)        110.7719  110.511   110.8003 calculate D2E/DX2 analyti!
 ! A23   A(9,7,10)        108.4314  108.2684  108.5447 calculate D2E/DX2 analyti!
 ! A24   A(9,7,11)        109.8602  110.1521  110.3322 calculate D2E/DX2 analyti!
 ! A25   A(10,7,11)       110.9211  110.8526  110.3386 calculate D2E/DX2 analyti!
 ! A26   A(1,11,4)        110.7207  110.7198  112.9209 calculate D2E/DX2 analyti!
 ! A27   A(1,11,7)        124.6423  124.4954  123.6004 calculate D2E/DX2 analyti!
 ! A28   A(4,11,7)        124.6343  124.7827  123.4485 calculate D2E/DX2 analyti!
 ! A29   A(4,12,28)        90.12    112.6842   65.5093 calculate D2E/DX2 analyti!
 ! A30   A(4,12,33)       113.7122  132.0833   81.5646 calculate D2E/DX2 analyti!
 ! A31   A(28,12,33)       44.3876   60.2815   35.945  calculate D2E/DX2 analyti!
 ! A32   A(15,14,16)      116.6921  114.4282  122.2691 calculate D2E/DX2 analyti!
 ! A33   A(15,14,18)      120.3077  121.2393  115.3528 calculate D2E/DX2 analyti!
 ! A34   A(16,14,18)      122.8331  124.3253  122.372  calculate D2E/DX2 analyti!
 ! A35   A(14,16,17)      117.16    114.8447  122.6899 calculate D2E/DX2 analyti!
 ! A36   A(14,16,24)      123.618   124.5075  121.9757 calculate D2E/DX2 analyti!
 ! A37   A(17,16,24)      118.8173  120.6435  115.3289 calculate D2E/DX2 analyti!
 ! A38   A(2,18,14)        85.7174   73.6723  111.8209 calculate D2E/DX2 analyti!
 ! A39   A(2,18,19)        75.9283   68.7205  107.3885 calculate D2E/DX2 analyti!
 ! A40   A(2,18,20)       111.1815  130.5419  111.1904 calculate D2E/DX2 analyti!
 ! A41   A(14,18,19)      121.3216  121.7103  108.6612 calculate D2E/DX2 analyti!
 ! A42   A(14,18,20)      123.7229  123.5443  110.0212 calculate D2E/DX2 analyti!
 ! A43   A(19,18,20)      114.8785  114.7435  107.5993 calculate D2E/DX2 analyti!
 ! A44   A(18,20,21)      110.7883  111.1507  111.8782 calculate D2E/DX2 analyti!
 ! A45   A(18,20,22)      114.0644  113.3811  111.0134 calculate D2E/DX2 analyti!
 ! A46   A(18,20,23)      111.53    111.0908  111.8767 calculate D2E/DX2 analyti!
 ! A47   A(21,20,22)      106.9033  106.998   107.2753 calculate D2E/DX2 analyti!
 ! A48   A(21,20,23)      106.0831  106.8769  107.694  calculate D2E/DX2 analyti!
 ! A49   A(22,20,23)      107.0323  107.0048  106.8397 calculate D2E/DX2 analyti!
 ! A50   A(3,24,16)       103.6214   82.906   111.6909 calculate D2E/DX2 analyti!
 ! A51   A(3,24,25)        92.1646  117.6565  107.9801 calculate D2E/DX2 analyti!
 ! A52   A(3,24,26)       104.3191   71.9115  109.8234 calculate D2E/DX2 analyti!
 ! A53   A(16,24,25)      119.3776  122.3045  109.0621 calculate D2E/DX2 analyti!
 ! A54   A(16,24,26)      118.6257  124.4322  110.555  calculate D2E/DX2 analyti!
 ! A55   A(25,24,26)      112.8585  113.2606  107.6036 calculate D2E/DX2 analyti!
 ! A56   A(24,26,27)      111.7006  111.8926  112.5367 calculate D2E/DX2 analyti!
 ! A57   A(24,26,28)      112.5429  111.7284  112.4354 calculate D2E/DX2 analyti!
 ! A58   A(24,26,34)      107.4499  106.6244  109.5736 calculate D2E/DX2 analyti!
 ! A59   A(27,26,28)      109.3552  110.5895  110.6158 calculate D2E/DX2 analyti!
 ! A60   A(27,26,34)      103.7967  107.5537  101.7687 calculate D2E/DX2 analyti!
 ! A61   A(28,26,34)      111.6592  108.2144  109.3585 calculate D2E/DX2 analyti!
 ! A62   A(12,28,26)      126.85    143.583    81.2218 calculate D2E/DX2 analyti!
 ! A63   A(30,29,34)      120.1099  119.4221  108.9375 calculate D2E/DX2 analyti!
 ! A64   A(30,29,35)      127.2626  127.2108  129.5969 calculate D2E/DX2 analyti!
 ! A65   A(34,29,35)      112.6222  113.3592  121.4639 calculate D2E/DX2 analyti!
 ! A66   A(29,30,31)      111.8948  112.9955  110.988  calculate D2E/DX2 analyti!
 ! A67   A(29,30,32)      111.3223  111.2865  111.0953 calculate D2E/DX2 analyti!
 ! A68   A(29,30,33)      113.581   111.7229  112.904  calculate D2E/DX2 analyti!
 ! A69   A(31,30,32)      106.4157  106.7026  106.8566 calculate D2E/DX2 analyti!
 ! A70   A(31,30,33)      106.8045  107.2187  107.3303 calculate D2E/DX2 analyti!
 ! A71   A(32,30,33)      106.3762  106.5439  107.3772 calculate D2E/DX2 analyti!
 ! A72   A(12,33,30)      168.8758  142.0278   59.1778 calculate D2E/DX2 analyti!
 ! A73   A(6,34,26)        81.6669   97.9731   14.7164 calculate D2E/DX2 analyti!
 ! A74   A(6,34,29)        84.5322  103.3718  105.5923 calculate D2E/DX2 analyti!
 ! A75   A(26,34,29)      122.9386  120.5659  118.4795 calculate D2E/DX2 analyti!
 ! D1    D(11,1,2,3)        5.3859    0.0582    1.5739 calculate D2E/DX2 analyti!
 ! D2    D(11,1,2,5)     -169.5765 -179.8009  117.7422 calculate D2E/DX2 analyti!
 ! D3    D(11,1,2,18)     119.9202   72.1007 -124.5765 calculate D2E/DX2 analyti!
 ! D4    D(13,1,2,3)     -174.4658  179.933  -177.843  calculate D2E/DX2 analyti!
 ! D5    D(13,1,2,5)       10.5718    0.074   -61.6748 calculate D2E/DX2 analyti!
 ! D6    D(13,1,2,18)     -59.9315 -108.0245   56.0065 calculate D2E/DX2 analyti!
 ! D7    D(2,1,11,4)       -1.2392   -0.0541    0.3624 calculate D2E/DX2 analyti!
 ! D8    D(2,1,11,7)      178.1934 -179.5448  178.4192 calculate D2E/DX2 analyti!
 ! D9    D(13,1,11,4)     178.632  -179.9387  179.812  calculate D2E/DX2 analyti!
 ! D10   D(13,1,11,7)      -1.9354    0.5706   -2.1311 calculate D2E/DX2 analyti!
 ! D11   D(1,2,3,4)        -7.0796   -0.0399   -2.7567 calculate D2E/DX2 analyti!
 ! D12   D(1,2,3,6)      -152.1733 -179.9713  112.0399 calculate D2E/DX2 analyti!
 ! D13   D(1,2,3,24)      102.174   125.3238 -124.3566 calculate D2E/DX2 analyti!
 ! D14   D(5,2,3,4)       167.5262  179.8017 -118.1648 calculate D2E/DX2 analyti!
 ! D15   D(5,2,3,6)        22.4325   -0.1297   -3.3682 calculate D2E/DX2 analyti!
 ! D16   D(5,2,3,24)      -83.2202  -54.8346  120.2353 calculate D2E/DX2 analyti!
 ! D17   D(18,2,3,4)     -104.8816 -122.3257  118.5819 calculate D2E/DX2 analyti!
 ! D18   D(18,2,3,6)      110.0247   57.7429 -126.6215 calculate D2E/DX2 analyti!
 ! D19   D(18,2,3,24)       4.372     3.0379   -3.018  calculate D2E/DX2 analyti!
 ! D20   D(1,2,18,14)    -170.3697 -155.4913   88.8515 calculate D2E/DX2 analyti!
 ! D21   D(1,2,18,19)     -46.5767  -20.913   -30.2632 calculate D2E/DX2 analyti!
 ! D22   D(1,2,18,20)      65.0159   84.0354 -147.7292 calculate D2E/DX2 analyti!
 ! D23   D(3,2,18,14)     -57.8578  -59.2995  -30.4834 calculate D2E/DX2 analyti!
 ! D24   D(3,2,18,19)      65.9352   75.2788 -149.5981 calculate D2E/DX2 analyti!
 ! D25   D(3,2,18,20)     177.5278 -179.7728   92.9359 calculate D2E/DX2 analyti!
 ! D26   D(5,2,18,14)      66.3163   79.9415 -153.9297 calculate D2E/DX2 analyti!
 ! D27   D(5,2,18,19)    -169.8907 -145.4803   86.9556 calculate D2E/DX2 analyti!
 ! D28   D(5,2,18,20)     -58.2981  -40.5318  -30.5104 calculate D2E/DX2 analyti!
 ! D29   D(2,3,4,11)        6.0575    0.006     3.0375 calculate D2E/DX2 analyti!
 ! D30   D(2,3,4,12)     -173.5805 -179.9433 -178.0432 calculate D2E/DX2 analyti!
 ! D31   D(6,3,4,11)      153.5518  179.9453 -112.89   calculate D2E/DX2 analyti!
 ! D32   D(6,3,4,12)      -26.0863   -0.0041   66.0293 calculate D2E/DX2 analyti!
 ! D33   D(24,3,4,11)    -101.8488 -147.0674  129.0609 calculate D2E/DX2 analyti!
 ! D34   D(24,3,4,12)      78.5131   32.9832  -52.0198 calculate D2E/DX2 analyti!
 ! D35   D(2,3,6,34)     -122.7239  165.0706  116.675  calculate D2E/DX2 analyti!
 ! D36   D(4,3,6,34)       96.0531  -14.8546 -129.5734 calculate D2E/DX2 analyti!
 ! D37   D(2,3,24,16)      49.5003   46.434    34.9604 calculate D2E/DX2 analyti!
 ! D38   D(2,3,24,25)     -71.4491  -76.4398  154.8688 calculate D2E/DX2 analyti!
 ! D39   D(2,3,24,26)     174.293   176.2307  -88.0678 calculate D2E/DX2 analyti!
 ! D40   D(4,3,24,16)     160.5021  175.8756  -84.5959 calculate D2E/DX2 analyti!
 ! D41   D(4,3,24,25)      39.5528   53.0018   35.3126 calculate D2E/DX2 analyti!
 ! D42   D(4,3,24,26)     -74.7052  -54.3277  152.376  calculate D2E/DX2 analyti!
 ! D43   D(6,3,24,16)     -77.8219  -52.2145  158.4855 calculate D2E/DX2 analyti!
 ! D44   D(6,3,24,25)     161.2287 -175.0883  -81.6061 calculate D2E/DX2 analyti!
 ! D45   D(6,3,24,26)      46.9708   77.5822   35.4573 calculate D2E/DX2 analyti!
 ! D46   D(3,4,11,1)       -2.8212    0.0322   -2.1866 calculate D2E/DX2 analyti!
 ! D47   D(3,4,11,7)      177.7461  179.5211  179.7532 calculate D2E/DX2 analyti!
 ! D48   D(12,4,11,1)     176.8304  179.9846  178.8341 calculate D2E/DX2 analyti!
 ! D49   D(12,4,11,7)      -2.6023   -0.5265    0.7739 calculate D2E/DX2 analyti!
 ! D50   D(3,4,12,28)     -44.3959  -24.012    -2.8374 calculate D2E/DX2 analyti!
 ! D51   D(3,4,12,33)      -5.6198   45.7143   30.879  calculate D2E/DX2 analyti!
 ! D52   D(11,4,12,28)    136.0326  156.0478  175.925  calculate D2E/DX2 analyti!
 ! D53   D(11,4,12,33)    174.8087 -134.2258 -150.3587 calculate D2E/DX2 analyti!
 ! D54   D(3,6,34,26)     -17.4146   71.2342  -93.7598 calculate D2E/DX2 analyti!
 ! D55   D(3,6,34,29)    -141.8915  -52.8975  113.825  calculate D2E/DX2 analyti!
 ! D56   D(8,7,11,1)     -128.6917 -138.6367  -89.2268 calculate D2E/DX2 analyti!
 ! D57   D(8,7,11,4)       50.6634   41.9434   88.6281 calculate D2E/DX2 analyti!
 ! D58   D(9,7,11,1)       -8.9565  -18.7286   30.8246 calculate D2E/DX2 analyti!
 ! D59   D(9,7,11,4)      170.3985  161.8515 -151.3205 calculate D2E/DX2 analyti!
 ! D60   D(10,7,11,1)     110.9095  101.08    150.764  calculate D2E/DX2 analyti!
 ! D61   D(10,7,11,4)     -69.7354  -78.34    -31.3811 calculate D2E/DX2 analyti!
 ! D62   D(4,12,28,26)     14.9477   42.0773   61.9454 calculate D2E/DX2 analyti!
 ! D63   D(33,12,28,26)  -109.9949  -84.6367  -48.7648 calculate D2E/DX2 analyti!
 ! D64   D(4,12,33,30)     20.0568  -28.1559 -148.458  calculate D2E/DX2 analyti!
 ! D65   D(28,12,33,30)    83.605    66.5965  -89.0815 calculate D2E/DX2 analyti!
 ! D66   D(15,14,16,17)    -2.0099   30.7422   -0.3483 calculate D2E/DX2 analyti!
 ! D67   D(15,14,16,24)   170.5865 -148.5069 -179.4577 calculate D2E/DX2 analyti!
 ! D68   D(18,14,16,17)  -177.3179 -148.2856  178.7093 calculate D2E/DX2 analyti!
 ! D69   D(18,14,16,24)    -4.7215   32.4653   -0.4002 calculate D2E/DX2 analyti!
 ! D70   D(15,14,18,2)   -116.7963 -127.7893 -146.5767 calculate D2E/DX2 analyti!
 ! D71   D(15,14,18,19)   172.532  -179.0682  -28.2173 calculate D2E/DX2 analyti!
 ! D72   D(15,14,18,20)    -4.112     0.4131   89.346  calculate D2E/DX2 analyti!
 ! D73   D(16,14,18,2)     58.3477   51.1754   34.3051 calculate D2E/DX2 analyti!
 ! D74   D(16,14,18,19)   -12.324    -0.1035  152.6646 calculate D2E/DX2 analyti!
 ! D75   D(16,14,18,20)   171.032   179.3778  -89.7722 calculate D2E/DX2 analyti!
 ! D76   D(14,16,24,3)    -71.4919 -117.8527  -35.3383 calculate D2E/DX2 analyti!
 ! D77   D(14,16,24,25)    28.937     0.4883 -154.6084 calculate D2E/DX2 analyti!
 ! D78   D(14,16,24,26)   173.5361  179.8354   87.2728 calculate D2E/DX2 analyti!
 ! D79   D(17,16,24,3)    100.9892   62.9393  145.4909 calculate D2E/DX2 analyti!
 ! D80   D(17,16,24,25)  -158.5819 -178.7197   26.2208 calculate D2E/DX2 analyti!
 ! D81   D(17,16,24,26)   -13.9828    0.6274  -91.898  calculate D2E/DX2 analyti!
 ! D82   D(2,18,20,21)    -28.1212  -22.5789   58.8432 calculate D2E/DX2 analyti!
 ! D83   D(2,18,20,22)     92.552    98.0026  178.6489 calculate D2E/DX2 analyti!
 ! D84   D(2,18,20,23)   -146.0464 -141.4507  -62.0989 calculate D2E/DX2 analyti!
 ! D85   D(14,18,20,21)  -127.4655 -119.6575 -176.7148 calculate D2E/DX2 analyti!
 ! D86   D(14,18,20,22)    -6.7924    0.9241  -56.9091 calculate D2E/DX2 analyti!
 ! D87   D(14,18,20,23)   114.6093  121.4707   62.3431 calculate D2E/DX2 analyti!
 ! D88   D(19,18,20,21)    55.6945   59.8567  -58.4946 calculate D2E/DX2 analyti!
 ! D89   D(19,18,20,22)   176.3676 -179.5618   61.3111 calculate D2E/DX2 analyti!
 ! D90   D(19,18,20,23)   -62.2307  -59.0151 -179.4367 calculate D2E/DX2 analyti!
 ! D91   D(3,24,26,27)    176.6174 -175.8872   72.5039 calculate D2E/DX2 analyti!
 ! D92   D(3,24,26,28)     53.1541   59.4924  -53.2117 calculate D2E/DX2 analyti!
 ! D93   D(3,24,26,34)    -70.17    -58.5516 -175.0436 calculate D2E/DX2 analyti!
 ! D94   D(16,24,26,27)   -68.7866 -108.3097  -51.1908 calculate D2E/DX2 analyti!
 ! D95   D(16,24,26,28)   167.7502  127.07   -176.9064 calculate D2E/DX2 analyti!
 ! D96   D(16,24,26,34)    44.426     9.0259   61.2617 calculate D2E/DX2 analyti!
 ! D97   D(25,24,26,27)    77.9957   71.0897 -170.1974 calculate D2E/DX2 analyti!
 ! D98   D(25,24,26,28)   -45.4676  -53.5307   64.087  calculate D2E/DX2 analyti!
 ! D99   D(25,24,26,34)  -168.7917 -171.5747  -57.7449 calculate D2E/DX2 analyti!
 ! D100  D(24,26,28,12)   -30.0773  -95.5693   -2.6809 calculate D2E/DX2 analyti!
 ! D101  D(27,26,28,12)  -154.8373  139.0865 -129.4332 calculate D2E/DX2 analyti!
 ! D102  D(34,26,28,12)    90.8658   21.5191  119.2732 calculate D2E/DX2 analyti!
 ! D103  D(24,26,34,6)     48.0728   62.898    52.1653 calculate D2E/DX2 analyti!
 ! D104  D(24,26,34,29)   125.9711  173.626    82.6578 calculate D2E/DX2 analyti!
 ! D105  D(27,26,34,6)    166.5167 -176.9307  171.4794 calculate D2E/DX2 analyti!
 ! D106  D(27,26,34,29)  -115.5849  -66.2026 -158.0281 calculate D2E/DX2 analyti!
 ! D107  D(28,26,34,6)    -75.7916  -57.4326  -71.4935 calculate D2E/DX2 analyti!
 ! D108  D(28,26,34,29)     2.1068   53.2955  -41.0011 calculate D2E/DX2 analyti!
 ! D109  D(34,29,30,31)    76.7614   60.2351  120.6789 calculate D2E/DX2 analyti!
 ! D110  D(34,29,30,32)  -164.3031 -179.7373 -120.5779 calculate D2E/DX2 analyti!
 ! D111  D(34,29,30,33)   -44.2624  -60.7781    0.1193 calculate D2E/DX2 analyti!
 ! D112  D(35,29,30,31)  -102.3338 -120.8617  -59.8031 calculate D2E/DX2 analyti!
 ! D113  D(35,29,30,32)    16.6018   -0.8341   58.94   calculate D2E/DX2 analyti!
 ! D114  D(35,29,30,33)   136.6425  118.1251  179.6372 calculate D2E/DX2 analyti!
 ! D115  D(30,29,34,6)     80.0232  106.6666 -171.0813 calculate D2E/DX2 analyti!
 ! D116  D(30,29,34,26)     3.6439   -1.1502 -178.7721 calculate D2E/DX2 analyti!
 ! D117  D(35,29,34,6)   -100.7569  -72.3819    9.3542 calculate D2E/DX2 analyti!
 ! D118  D(35,29,34,26)  -177.1363  179.8013    1.6633 calculate D2E/DX2 analyti!
 ! D119  D(29,30,33,12)   -27.0203   -1.5585   30.6034 calculate D2E/DX2 analyti!
 ! D120  D(31,30,33,12)  -150.8587 -125.8724  -92.0229 calculate D2E/DX2 analyti!
 ! D121  D(32,30,33,12)    95.7853  120.1775  153.3981 calculate D2E/DX2 analyti!
 --------------------------------------------------------------------------------
 Trust Radius=3.00D-01 FncErr=1.00D-07 GrdErr=1.00D-07
 Number of steps in this run=    210 maximum allowed number of steps=    210.
 Search for a saddle point of order  1.
 GradGradGradGradGradGradGradGradGradGradGradGradGradGradGradGradGradGrad

                          Input orientation:                          
 ---------------------------------------------------------------------
 Center     Atomic      Atomic             Coordinates (Angstroms)
 Number     Number       Type             X           Y           Z
 ---------------------------------------------------------------------
      1          6           0        2.236293   -0.946843   -0.699694
      2          6           0        1.278934    0.067338   -1.152702
      3          6           0        0.005772   -0.193322   -0.670940
      4          6           0        0.068323   -1.568356    0.016916
      5          1           0        1.566348    0.840904   -1.842029
      6          1           0       -0.918861    0.107009   -1.165637
      7          6           0        1.965077   -3.178827    0.602808
      8          1           0        1.391032   -4.058964    0.263526
      9          1           0        3.021123   -3.314978    0.305153
     10          1           0        1.915937   -3.134895    1.704607
     11          7           0        1.431508   -1.944540    0.003107
     12          8           0       -0.841254   -2.224287    0.479234
     13          8           0        3.434989   -1.050471   -0.812806
     14          6           0        1.573933    2.705634    0.028596
     15          1           0        1.737228    3.619848   -0.550384
     16          6           0        0.226629    2.403927    0.382355
     17          1           0       -0.545414    3.125438    0.079163
     18          6           0        2.613328    1.868591    0.298865
     19          1           0        2.495935    1.013975    0.976560
     20          6           0        3.984202    2.066001   -0.222524
     21          1           0        4.348817    1.150114   -0.725497
     22          1           0        4.073794    2.886350   -0.948309
     23          1           0        4.700186    2.273963    0.590024
     24          6           0       -0.168208    1.199253    0.945230
     25          1           0        0.545340    0.632592    1.565445
     26          6           0       -1.597540    1.052635    1.412610
     27          1           0       -1.806103    1.685632    2.298753
     28          1           0       -1.863935    0.002196    1.640994
     29          6           0       -3.499196    0.903841   -0.198891
     30          6           0       -3.835882   -0.452408    0.287871
     31          1           0       -4.388123   -0.421590    1.241615
     32          1           0       -4.481658   -0.987135   -0.429186
     33          1           0       -2.947894   -1.098696    0.451805
     34          8           0       -2.454133    1.610954    0.378158
     35          8           0       -4.054406    1.526891   -1.077857
 ---------------------------------------------------------------------
                    Distance matrix (angstroms):
                    1          2          3          4          5
     1  C    0.000000
     2  C    1.466395   0.000000
     3  C    2.354537   1.385994   0.000000
     4  C    2.366411   2.347143   1.538758   0.000000
     5  H    2.224813   1.075259   2.208273   3.391797   0.000000
     6  H    3.358974   2.198191   1.090812   2.275920   2.678128
     7  C    2.598427   3.753691   3.791378   2.556279   4.721700
     8  H    3.365643   4.364016   4.211337   2.830813   5.335991
     9  H    2.689561   4.074386   4.448577   3.442789   4.898787
    10  H    3.266629   4.338696   4.236131   2.952291   5.339271
    11  N    1.461851   2.325258   2.356656   1.414206   3.343861
    12  O    3.534548   3.522777   2.482976   1.212977   4.536541
    13  O    1.208472   2.452264   3.537564   3.505864   2.851038
    14  C    3.782818   2.905700   3.369335   4.531444   2.641308
    15  H    4.596306   3.632237   4.189599   5.479465   3.069214
    16  C    4.054287   2.987205   2.811390   3.992198   3.030804
    17  H    4.992793   3.767985   3.446829   4.734158   3.656448
    18  C    3.010971   2.670612   3.462854   4.285925   2.595329
    19  H    2.592692   2.628872   3.220673   3.671873   2.972966
    20  C    3.515694   3.489751   4.597121   5.347896   3.157479
    21  H    2.976685   3.283153   4.546410   5.124831   3.014032
    22  H    4.258120   3.974902   5.109806   6.067937   3.357063
    23  H    4.255318   4.428459   5.451151   6.045330   4.217758
    24  C    3.618443   2.788686   2.140453   2.928715   3.302410
    25  H    3.238023   2.871585   2.444317   2.733068   3.563248
    26  C    4.812277   3.978157   2.909329   3.404798   4.543973
    27  H    5.679928   4.903965   3.953788   4.394166   5.406761
    28  H    4.815741   4.205544   2.979776   2.972857   4.960012
    29  C    6.047451   4.943684   3.702890   4.345747   5.325748
    30  C    6.171795   5.339169   3.967965   4.069591   5.949219
    31  H    6.922966   6.171494   4.797529   4.761814   6.823377
    32  H    6.723516   5.900831   4.563509   4.608596   6.474274
    33  H    5.312702   4.669063   3.287005   3.083387   5.422371
    34  O    5.450154   4.319962   3.226011   4.074468   4.656874
    35  O    6.770174   5.529955   4.428290   5.270291   5.713791
                    6          7          8          9         10
     6  H    0.000000
     7  C    4.716059   0.000000
     8  H    4.973273   1.104211   0.000000
     9  H    5.421872   1.105608   1.792329   0.000000
    10  H    5.175357   1.103769   1.790571   1.792299   0.000000
    11  N    3.331524   1.472346   2.130785   2.120426   2.132304
    12  O    2.854219   2.966801   2.897528   4.017196   3.151642
    13  O    4.518878   2.948644   3.793057   2.559123   3.604124
    14  C    3.793819   5.925335   6.771146   6.198274   6.085865
    15  H    4.446727   6.899547   7.729583   7.104375   7.123446
    16  C    2.997376   5.851320   6.568023   6.365613   5.939753
    17  H    3.286321   6.805918   7.443080   7.365475   6.920411
    18  C    4.210023   5.097945   6.052369   5.199589   5.243790
    19  H    4.131880   4.242769   5.240605   4.412080   4.252009
    20  C    5.363500   5.680340   6.669031   5.491894   5.919533
    21  H    5.387971   5.117260   6.071339   4.770960   5.494144
    22  H    5.718266   6.605984   7.543417   6.413716   6.924572
    23  H    6.273095   6.100320   7.152836   5.842659   6.184665
    24  C    2.492436   4.882186   5.526735   5.564154   4.868794
    25  H    3.143077   4.179622   4.941750   4.827126   4.011466
    26  C    2.828810   5.590464   6.031616   6.452484   5.474046
    27  H    3.909124   6.384434   6.882166   7.230675   6.119157
    28  H    2.963330   5.085083   5.383795   6.054081   4.912516
    29  C    2.868391   6.867982   6.982664   7.782484   7.018430
    30  C    3.306757   6.417450   6.350470   7.430553   6.502791
    31  H    4.255591   6.955112   6.898245   8.009094   6.878776
    32  H    3.799083   6.886866   6.663668   7.889856   7.077794
    33  H    2.861262   5.337324   5.255941   6.368876   5.419637
    34  O    2.646169   6.520880   6.851744   7.365362   6.586354
    35  O    3.443168   7.823208   7.915420   8.684441   8.069656
                   11         12         13         14         15
    11  N    0.000000
    12  O    2.338889   0.000000
    13  O    2.340728   4.618816   0.000000
    14  C    4.652424   5.508205   4.275489   0.000000
    15  H    5.600199   6.470131   4.976258   1.094382   0.000000
    16  C    4.528215   4.750803   4.863625   1.425272   2.151830
    17  H    5.442305   5.372814   5.837588   2.161116   2.418931
    18  C    4.003016   5.358948   3.229839   1.361627   2.134403
    19  H    3.291417   4.676592   2.888873   2.147192   3.114124
    20  C    4.759369   6.494926   3.219079   2.506309   2.751513
    21  H    4.314909   6.306727   2.384383   3.269293   3.598701
    22  H    5.587877   7.232855   3.990613   2.690038   2.481109
    23  H    5.368844   7.138213   3.823678   3.205464   3.448342
    24  C    3.651044   3.520053   4.597279   2.478801   3.424446
    25  H    3.141306   3.356226   4.103517   2.778023   3.849809
    26  C    4.488305   3.490183   5.890829   3.834858   4.643770
    27  H    5.378686   4.419169   6.681101   4.197459   4.941049
    28  H    4.163219   2.711603   5.933619   4.661259   5.554990
    29  C    5.697887   4.160492   7.230432   5.388399   5.909346
    30  C    5.482056   3.484820   7.377989   6.269493   6.953092
    31  H    6.141774   4.051077   8.112781   6.840837   7.554099
    32  H    6.005750   3.950736   7.926189   7.107481   7.740383
    33  H    4.482850   2.388648   6.507132   5.924436   6.724538
    34  O    5.280190   4.161810   6.571402   4.188774   4.739762
    35  O    6.581380   5.178823   7.924902   5.855926   6.180754
                   16         17         18         19         20
    16  C    0.000000
    17  H    1.099342   0.000000
    18  C    2.447425   3.406697   0.000000
    19  H    2.726683   3.809646   1.097005   0.000000
    20  C    3.820919   4.661635   1.479902   2.181627   0.000000
    21  H    4.448799   5.338809   2.139497   2.519663   1.106696
    22  H    4.099277   4.738137   2.173530   3.114570   1.098983
    23  H    4.480260   5.338755   2.145711   2.568209   1.102776
    24  C    1.387071   2.145354   2.933043   2.670762   4.399705
    25  H    2.153813   3.100493   2.721855   2.072936   4.132465
    26  C    2.492992   2.679843   4.431435   4.116816   5.903931
    27  H    2.884533   2.930692   4.854318   4.550479   6.326859
    28  H    3.423878   3.732620   5.032954   4.524780   6.475545
    29  C    4.058310   3.706432   6.208176   6.110271   7.573137
    30  C    4.967048   4.865359   6.854157   6.535784   8.231439
    31  H    5.478851   5.357155   7.426576   7.037142   8.855938
    32  H    5.858828   5.715391   7.682712   7.393739   9.001951
    33  H    4.727662   4.873816   6.305186   5.862937   7.650096
    34  O    2.795587   2.454845   5.074625   5.021717   6.482286
    35  O    4.607458   4.025801   6.816949   6.884089   8.101941
                   21         22         23         24         25
    21  H    0.000000
    22  H    1.771948   0.000000
    23  H    1.765528   1.770269   0.000000
    24  C    4.816353   4.942303   4.998242   0.000000
    25  H    4.470200   4.883480   4.572558   1.102235   0.000000
    26  C    6.319823   6.410965   6.467583   1.510937   2.189001
    27  H    6.878656   6.823366   6.752606   2.179746   2.678791
    28  H    6.746575   7.090800   7.025179   2.189183   2.491528
    29  C    7.869515   7.863977   8.350418   3.534369   4.420942
    30  C    8.401445   8.674007   8.965982   4.075774   4.690898
    31  H    9.092520   9.345709   9.501996   4.530195   5.055217
    32  H    9.090266   9.405803   9.796928   5.027441   5.645598
    33  H    7.725619   8.194206   8.359848   3.640150   4.054656
    34  O    6.907283   6.782328   7.188097   2.390925   3.371006
    35  O    8.419042   8.242120   8.943311   4.393491   5.380007
                   26         27         28         29         30
    26  C    0.000000
    27  H    1.108799   0.000000
    28  H    1.107496   1.808300   0.000000
    29  C    2.497073   3.117048   2.621492   0.000000
    30  C    2.922390   3.568594   2.434375   1.479765   0.000000
    31  H    3.160686   3.496391   2.590488   2.149887   1.102519
    32  H    3.983844   4.663038   3.480933   2.143375   1.103236
    33  H    2.715663   3.530918   1.949641   2.176578   1.110444
    34  O    1.454497   2.028350   2.128659   1.387498   2.484923
    35  O    3.530373   4.059748   3.809857   1.212035   2.414661
                   31         32         33         34         35
    31  H    0.000000
    32  H    1.766399   0.000000
    33  H    1.776663   1.772293   0.000000
    34  O    2.935492   3.393041   2.755254   0.000000
    35  O    3.047604   2.631282   3.233874   2.165161   0.000000
 Stoichiometry    C13H17NO4
 Framework group  C1[X(C13H17NO4)]
 Deg. of freedom    99
 Full point group                 C1      NOp   1
 Largest Abelian subgroup         C1      NOp   1
 Largest concise Abelian subgroup C1      NOp   1
                         Standard orientation:                         
 ---------------------------------------------------------------------
 Center     Atomic      Atomic             Coordinates (Angstroms)
 Number     Number       Type             X           Y           Z
 ---------------------------------------------------------------------
      1          6           0       -2.283319    0.805214   -0.641821
      2          6           0       -1.215392   -0.079203   -1.118950
      3          6           0        0.029957    0.371792   -0.710674
      4          6           0       -0.192754    1.745718   -0.054546
      5          1           0       -1.423638   -0.906766   -1.773133
      6          1           0        0.962840    0.187981   -1.245289
      7          6           0       -2.267300    3.093334    0.589469
      8          1           0       -1.840109    4.033804    0.199207
      9          1           0       -3.345070    3.071207    0.343927
     10          1           0       -2.159537    3.091619    1.687963
     11          7           0       -1.594441    1.927261   -0.006633
     12          8           0        0.636386    2.536533    0.343515
     13          8           0       -3.488687    0.736829   -0.694900
     14          6           0       -1.078201   -2.694085    0.140678
     15          1           0       -1.138571   -3.640023   -0.406341
     16          6           0        0.228519   -2.196170    0.416293
     17          1           0        1.079125   -2.812059    0.091175
     18          6           0       -2.211052   -2.002225    0.444001
     19          1           0       -2.182919   -1.118554    1.093427
     20          6           0       -3.563847   -2.405520   -0.000305
     21          1           0       -4.077750   -1.565910   -0.506006
     22          1           0       -3.571635   -3.252919   -0.700032
     23          1           0       -4.203440   -2.685564    0.853282
     24          6           0        0.476107   -0.930947    0.928032
     25          1           0       -0.279575   -0.450102    1.570415
     26          6           0        1.891275   -0.571470    1.316627
     27          1           0        2.229393   -1.140754    2.206023
     28          1           0        2.017525    0.512577    1.504912
     29          6           0        3.673233   -0.209749   -0.394850
     30          6           0        3.838282    1.194956    0.040198
     31          1           0        4.434562    1.271773    0.964373
     32          1           0        4.366956    1.791622   -0.722444
     33          1           0        2.876939    1.715798    0.234177
     34          8           0        2.767312   -1.037209    0.253044
     35          8           0        4.267857   -0.776706   -1.285924
 ---------------------------------------------------------------------
 Rotational constants (GHZ):      0.5871769      0.3037056      0.2224906
 Standard basis: VSTO-6G (5D, 7F)
 There are    89 symmetry adapted cartesian basis functions of A   symmetry.
 There are    89 symmetry adapted basis functions of A   symmetry.
    89 basis functions,   534 primitive gaussians,    89 cartesian basis functions
    49 alpha electrons       49 beta electrons
       nuclear repulsion energy       780.5616816042 Hartrees.
 Integral buffers will be    131072 words long.
 Regular integral format.
 Two-electron integral symmetry is turned off.
 Nuclear repulsion after empirical dispersion term =      780.5481468038 Hartrees.
 Force inversion solution in PCM.
 ------------------------------------------------------------------------------
 Polarizable Continuum Model (PCM)
 =================================
 Model                : C-PCM.
 Atomic radii         : UFF (Universal Force Field).
 Polarization charges : Total charges.
 Charge compensation  : None.
 Solution method      : Matrix inversion.
 Cavity type          : Scaled VdW (van der Waals Surface) (Alpha=1.100).
 Cavity algorithm     : GePol (No added spheres)
                        Default sphere list used, NSphG=   35.
                        Lebedev-Laikov grids with approx.  5.0 points / Ang**2.
                        Smoothing algorithm: Karplus/York (Gamma=1.0000).
                        Polarization charges: spherical gaussians, with
                                              point-specific exponents (IZeta= 3).
                        Self-potential: point-specific (ISelfS= 7).
                        Self-field    : sphere-specific E.n sum rule (ISelfD= 2).
 1st derivatives      : Analytical E(r).r(x)/FMM algorithm (CHGder, D1EAlg=3).
                        Cavity 1st derivative terms included.
 2nd derivatives      : Analytical E(r).r(xy)/FMM algorithm (CHGder, D2EAlg=3).
                        Cavity 2nd derivative terms included.
 Solvent              : Toluene, Eps=   2.374100 Eps(inf)=   2.238315
 ------------------------------------------------------------------------------
 Do NDO integrals.
 One-electron integrals computed using PRISM.
 NBasis=    89 RedAO= F EigKep=  0.00D+00  NBF=    89
 NBsUse=    89 1.00D-04 EigRej=  0.00D+00 NBFU=    89
 Simple Huckel Guess.
 Overlap will be assumed to be unity.
 Keep J ints in memory in canonical form, NReq=10071224.
 Requested convergence on RMS density matrix=1.00D-08 within 128 cycles.
 Requested convergence on MAX density matrix=1.00D-06.
 Requested convergence on             energy=1.00D-06.
 No special actions if energy rises.
 Inv3:  Mode=1 IEnd=    18615243.
 Iteration    1 A*A^-1 deviation from unit magnitude is 5.11D-15 for   2489.
 Iteration    1 A*A^-1 deviation from orthogonality  is 3.14D-15 for   2459   2424.
 Iteration    1 A^-1*A deviation from unit magnitude is 5.11D-15 for   2489.
 Iteration    1 A^-1*A deviation from orthogonality  is 2.69D-15 for   2465   2411.
 Error on total polarization charges = -0.00023
 SCF Done:  E(RPM6D3) = -0.189079754992     A.U. after   18 cycles
            NFock= 17  Conv=0.51D-08     -V/T= 0.9970
 Range of M.O.s used for correlation:     1    89
 NBasis=    89 NAE=    49 NBE=    49 NFC=     0 NFV=     0
 NROrb=     89 NOA=    49 NOB=    49 NVA=    40 NVB=    40
 Symmetrizing basis deriv contribution to polar:
 IMax=3 JMax=2 DiffMx= 0.00D+00
 G2DrvN: will do    36 centers at a time, making    1 passes.
 Calling FoFCou, ICntrl=  3107 FMM=F I1Cent=   0 AccDes= 0.00D+00.
 NEqPCM:  Using equilibrium solvation (IEInf=0, Eps=   2.3741, EpsInf=   2.2383)
 G2PCM: DoFxE=T DoFxN=T DoGrad=T DoDP/DQ/DG/TGxP=FFFF NFrqRd=   0 IEInf=0 SqF1=F DoCFld=F IF1Alg=4.
 End of G2Drv F.D. properties file   721 does not exist.
 End of G2Drv F.D. properties file   722 does not exist.
 End of G2Drv F.D. properties file   788 does not exist.
          IDoAtm=11111111111111111111111111111111111
 NEqPCM:  Using equilibrium solvation (IEInf=0, Eps=   2.3741, EpsInf=   2.2383)
          Differentiating once with respect to electric field.
                with respect to dipole field.
          Differentiating once with respect to nuclear coordinates.
          Electric field/nuclear overlap derivatives assumed to be zero.
 Keep J ints in memory in canonical form, NReq=15078237.
          There are   108 degrees of freedom in the 1st order CPHF.  IDoFFX=5 NUNeed=   108.
 LinEq1:  Iter=  0 NonCon=   108 RMS=2.07D-01 Max=4.21D+00 NDo=   108
 AX will form   108 AO Fock derivatives at one time.
 LinEq1:  Iter=  1 NonCon=   108 RMS=3.26D-02 Max=6.88D-01 NDo=   108
 LinEq1:  Iter=  2 NonCon=   108 RMS=8.65D-03 Max=1.55D-01 NDo=   108
 LinEq1:  Iter=  3 NonCon=   108 RMS=1.98D-03 Max=2.51D-02 NDo=   108
 LinEq1:  Iter=  4 NonCon=   108 RMS=4.14D-04 Max=7.89D-03 NDo=   108
 LinEq1:  Iter=  5 NonCon=   108 RMS=7.97D-05 Max=1.09D-03 NDo=   108
 LinEq1:  Iter=  6 NonCon=   107 RMS=1.90D-05 Max=3.48D-04 NDo=   108
 LinEq1:  Iter=  7 NonCon=    85 RMS=3.71D-06 Max=5.04D-05 NDo=   108
 LinEq1:  Iter=  8 NonCon=    37 RMS=7.49D-07 Max=7.35D-06 NDo=   108
 LinEq1:  Iter=  9 NonCon=     3 RMS=1.26D-07 Max=1.60D-06 NDo=   108
 LinEq1:  Iter= 10 NonCon=     3 RMS=2.04D-08 Max=2.34D-07 NDo=   108
 LinEq1:  Iter= 11 NonCon=     0 RMS=3.13D-09 Max=2.99D-08 NDo=   108
 Linear equations converged to 1.000D-08 1.000D-07 after    11 iterations.
 Isotropic polarizability for W=    0.000000      168.90 Bohr**3.
 End of Minotr F.D. properties file   721 does not exist.
 End of Minotr F.D. properties file   722 does not exist.
 End of Minotr F.D. properties file   788 does not exist.

 **********************************************************************

            Population analysis using the SCF density.

 **********************************************************************

 Orbital symmetries:
       Occupied  (A) (A) (A) (A) (A) (A) (A) (A) (A) (A) (A) (A)
                 (A) (A) (A) (A) (A) (A) (A) (A) (A) (A) (A) (A)
                 (A) (A) (A) (A) (A) (A) (A) (A) (A) (A) (A) (A)
                 (A) (A) (A) (A) (A) (A) (A) (A) (A) (A) (A) (A)
                 (A)
       Virtual   (A) (A) (A) (A) (A) (A) (A) (A) (A) (A) (A) (A)
                 (A) (A) (A) (A) (A) (A) (A) (A) (A) (A) (A) (A)
                 (A) (A) (A) (A) (A) (A) (A) (A) (A) (A) (A) (A)
                 (A) (A) (A) (A)
 The electronic state is 1-A.
 Alpha  occ. eigenvalues --   -1.23517  -1.19479  -1.18470  -1.16271  -1.12783
 Alpha  occ. eigenvalues --   -1.08225  -1.04436  -1.01648  -0.99204  -0.95248
 Alpha  occ. eigenvalues --   -0.90802  -0.88409  -0.84871  -0.80413  -0.77695
 Alpha  occ. eigenvalues --   -0.76199  -0.73986  -0.68875  -0.66174  -0.64684
 Alpha  occ. eigenvalues --   -0.63311  -0.62721  -0.61614  -0.60442  -0.59233
 Alpha  occ. eigenvalues --   -0.57924  -0.57320  -0.55821  -0.55545  -0.54745
 Alpha  occ. eigenvalues --   -0.54045  -0.52989  -0.52751  -0.52116  -0.51720
 Alpha  occ. eigenvalues --   -0.50932  -0.50621  -0.50392  -0.48469  -0.47248
 Alpha  occ. eigenvalues --   -0.46467  -0.45639  -0.43603  -0.42179  -0.41182
 Alpha  occ. eigenvalues --   -0.40136  -0.39598  -0.38189  -0.33663
 Alpha virt. eigenvalues --   -0.06178  -0.01764   0.01993   0.02222   0.02625
 Alpha virt. eigenvalues --    0.03392   0.03634   0.05752   0.08037   0.09380
 Alpha virt. eigenvalues --    0.10055   0.11889   0.12316   0.12672   0.13437
 Alpha virt. eigenvalues --    0.14241   0.14849   0.16047   0.16232   0.16939
 Alpha virt. eigenvalues --    0.17306   0.17441   0.17666   0.17928   0.18258
 Alpha virt. eigenvalues --    0.18532   0.18728   0.18791   0.18824   0.18960
 Alpha virt. eigenvalues --    0.19219   0.19401   0.19734   0.20412   0.20789
 Alpha virt. eigenvalues --    0.21298   0.21465   0.22073   0.22144   0.23600
          Condensed to atoms (all electrons):
               1          2          3          4          5          6
     1  C    3.354495   0.000000   0.000000   0.000000   0.000000   0.000000
     2  C    0.000000   4.403969   0.000000   0.000000   0.000000   0.000000
     3  C    0.000000   0.000000   4.071437   0.000000   0.000000   0.000000
     4  C    0.000000   0.000000   0.000000   3.423200   0.000000   0.000000
     5  H    0.000000   0.000000   0.000000   0.000000   0.790078   0.000000
     6  H    0.000000   0.000000   0.000000   0.000000   0.000000   0.811594
     7  C    0.000000   0.000000   0.000000   0.000000   0.000000   0.000000
     8  H    0.000000   0.000000   0.000000   0.000000   0.000000   0.000000
     9  H    0.000000   0.000000   0.000000   0.000000   0.000000   0.000000
    10  H    0.000000   0.000000   0.000000   0.000000   0.000000   0.000000
    11  N    0.000000   0.000000   0.000000   0.000000   0.000000   0.000000
    12  O    0.000000   0.000000   0.000000   0.000000   0.000000   0.000000
    13  O    0.000000   0.000000   0.000000   0.000000   0.000000   0.000000
    14  C    0.000000   0.000000   0.000000   0.000000   0.000000   0.000000
    15  H    0.000000   0.000000   0.000000   0.000000   0.000000   0.000000
    16  C    0.000000   0.000000   0.000000   0.000000   0.000000   0.000000
    17  H    0.000000   0.000000   0.000000   0.000000   0.000000   0.000000
    18  C    0.000000   0.000000   0.000000   0.000000   0.000000   0.000000
    19  H    0.000000   0.000000   0.000000   0.000000   0.000000   0.000000
    20  C    0.000000   0.000000   0.000000   0.000000   0.000000   0.000000
    21  H    0.000000   0.000000   0.000000   0.000000   0.000000   0.000000
    22  H    0.000000   0.000000   0.000000   0.000000   0.000000   0.000000
    23  H    0.000000   0.000000   0.000000   0.000000   0.000000   0.000000
    24  C    0.000000   0.000000   0.000000   0.000000   0.000000   0.000000
    25  H    0.000000   0.000000   0.000000   0.000000   0.000000   0.000000
    26  C    0.000000   0.000000   0.000000   0.000000   0.000000   0.000000
    27  H    0.000000   0.000000   0.000000   0.000000   0.000000   0.000000
    28  H    0.000000   0.000000   0.000000   0.000000   0.000000   0.000000
    29  C    0.000000   0.000000   0.000000   0.000000   0.000000   0.000000
    30  C    0.000000   0.000000   0.000000   0.000000   0.000000   0.000000
    31  H    0.000000   0.000000   0.000000   0.000000   0.000000   0.000000
    32  H    0.000000   0.000000   0.000000   0.000000   0.000000   0.000000
    33  H    0.000000   0.000000   0.000000   0.000000   0.000000   0.000000
    34  O    0.000000   0.000000   0.000000   0.000000   0.000000   0.000000
    35  O    0.000000   0.000000   0.000000   0.000000   0.000000   0.000000
               7          8          9         10         11         12
     1  C    0.000000   0.000000   0.000000   0.000000   0.000000   0.000000
     2  C    0.000000   0.000000   0.000000   0.000000   0.000000   0.000000
     3  C    0.000000   0.000000   0.000000   0.000000   0.000000   0.000000
     4  C    0.000000   0.000000   0.000000   0.000000   0.000000   0.000000
     5  H    0.000000   0.000000   0.000000   0.000000   0.000000   0.000000
     6  H    0.000000   0.000000   0.000000   0.000000   0.000000   0.000000
     7  C    4.252360   0.000000   0.000000   0.000000   0.000000   0.000000
     8  H    0.000000   0.839077   0.000000   0.000000   0.000000   0.000000
     9  H    0.000000   0.000000   0.829401   0.000000   0.000000   0.000000
    10  H    0.000000   0.000000   0.000000   0.844395   0.000000   0.000000
    11  N    0.000000   0.000000   0.000000   0.000000   5.494818   0.000000
    12  O    0.000000   0.000000   0.000000   0.000000   0.000000   6.516628
    13  O    0.000000   0.000000   0.000000   0.000000   0.000000   0.000000
    14  C    0.000000   0.000000   0.000000   0.000000   0.000000   0.000000
    15  H    0.000000   0.000000   0.000000   0.000000   0.000000   0.000000
    16  C    0.000000   0.000000   0.000000   0.000000   0.000000   0.000000
    17  H    0.000000   0.000000   0.000000   0.000000   0.000000   0.000000
    18  C    0.000000   0.000000   0.000000   0.000000   0.000000   0.000000
    19  H    0.000000   0.000000   0.000000   0.000000   0.000000   0.000000
    20  C    0.000000   0.000000   0.000000   0.000000   0.000000   0.000000
    21  H    0.000000   0.000000   0.000000   0.000000   0.000000   0.000000
    22  H    0.000000   0.000000   0.000000   0.000000   0.000000   0.000000
    23  H    0.000000   0.000000   0.000000   0.000000   0.000000   0.000000
    24  C    0.000000   0.000000   0.000000   0.000000   0.000000   0.000000
    25  H    0.000000   0.000000   0.000000   0.000000   0.000000   0.000000
    26  C    0.000000   0.000000   0.000000   0.000000   0.000000   0.000000
    27  H    0.000000   0.000000   0.000000   0.000000   0.000000   0.000000
    28  H    0.000000   0.000000   0.000000   0.000000   0.000000   0.000000
    29  C    0.000000   0.000000   0.000000   0.000000   0.000000   0.000000
    30  C    0.000000   0.000000   0.000000   0.000000   0.000000   0.000000
    31  H    0.000000   0.000000   0.000000   0.000000   0.000000   0.000000
    32  H    0.000000   0.000000   0.000000   0.000000   0.000000   0.000000
    33  H    0.000000   0.000000   0.000000   0.000000   0.000000   0.000000
    34  O    0.000000   0.000000   0.000000   0.000000   0.000000   0.000000
    35  O    0.000000   0.000000   0.000000   0.000000   0.000000   0.000000
              13         14         15         16         17         18
     1  C    0.000000   0.000000   0.000000   0.000000   0.000000   0.000000
     2  C    0.000000   0.000000   0.000000   0.000000   0.000000   0.000000
     3  C    0.000000   0.000000   0.000000   0.000000   0.000000   0.000000
     4  C    0.000000   0.000000   0.000000   0.000000   0.000000   0.000000
     5  H    0.000000   0.000000   0.000000   0.000000   0.000000   0.000000
     6  H    0.000000   0.000000   0.000000   0.000000   0.000000   0.000000
     7  C    0.000000   0.000000   0.000000   0.000000   0.000000   0.000000
     8  H    0.000000   0.000000   0.000000   0.000000   0.000000   0.000000
     9  H    0.000000   0.000000   0.000000   0.000000   0.000000   0.000000
    10  H    0.000000   0.000000   0.000000   0.000000   0.000000   0.000000
    11  N    0.000000   0.000000   0.000000   0.000000   0.000000   0.000000
    12  O    0.000000   0.000000   0.000000   0.000000   0.000000   0.000000
    13  O    6.502980   0.000000   0.000000   0.000000   0.000000   0.000000
    14  C    0.000000   4.299378   0.000000   0.000000   0.000000   0.000000
    15  H    0.000000   0.000000   0.827806   0.000000   0.000000   0.000000
    16  C    0.000000   0.000000   0.000000   3.996710   0.000000   0.000000
    17  H    0.000000   0.000000   0.000000   0.000000   0.841720   0.000000
    18  C    0.000000   0.000000   0.000000   0.000000   0.000000   3.944153
    19  H    0.000000   0.000000   0.000000   0.000000   0.000000   0.000000
    20  C    0.000000   0.000000   0.000000   0.000000   0.000000   0.000000
    21  H    0.000000   0.000000   0.000000   0.000000   0.000000   0.000000
    22  H    0.000000   0.000000   0.000000   0.000000   0.000000   0.000000
    23  H    0.000000   0.000000   0.000000   0.000000   0.000000   0.000000
    24  C    0.000000   0.000000   0.000000   0.000000   0.000000   0.000000
    25  H    0.000000   0.000000   0.000000   0.000000   0.000000   0.000000
    26  C    0.000000   0.000000   0.000000   0.000000   0.000000   0.000000
    27  H    0.000000   0.000000   0.000000   0.000000   0.000000   0.000000
    28  H    0.000000   0.000000   0.000000   0.000000   0.000000   0.000000
    29  C    0.000000   0.000000   0.000000   0.000000   0.000000   0.000000
    30  C    0.000000   0.000000   0.000000   0.000000   0.000000   0.000000
    31  H    0.000000   0.000000   0.000000   0.000000   0.000000   0.000000
    32  H    0.000000   0.000000   0.000000   0.000000   0.000000   0.000000
    33  H    0.000000   0.000000   0.000000   0.000000   0.000000   0.000000
    34  O    0.000000   0.000000   0.000000   0.000000   0.000000   0.000000
    35  O    0.000000   0.000000   0.000000   0.000000   0.000000   0.000000
              19         20         21         22         23         24
     1  C    0.000000   0.000000   0.000000   0.000000   0.000000   0.000000
     2  C    0.000000   0.000000   0.000000   0.000000   0.000000   0.000000
     3  C    0.000000   0.000000   0.000000   0.000000   0.000000   0.000000
     4  C    0.000000   0.000000   0.000000   0.000000   0.000000   0.000000
     5  H    0.000000   0.000000   0.000000   0.000000   0.000000   0.000000
     6  H    0.000000   0.000000   0.000000   0.000000   0.000000   0.000000
     7  C    0.000000   0.000000   0.000000   0.000000   0.000000   0.000000
     8  H    0.000000   0.000000   0.000000   0.000000   0.000000   0.000000
     9  H    0.000000   0.000000   0.000000   0.000000   0.000000   0.000000
    10  H    0.000000   0.000000   0.000000   0.000000   0.000000   0.000000
    11  N    0.000000   0.000000   0.000000   0.000000   0.000000   0.000000
    12  O    0.000000   0.000000   0.000000   0.000000   0.000000   0.000000
    13  O    0.000000   0.000000   0.000000   0.000000   0.000000   0.000000
    14  C    0.000000   0.000000   0.000000   0.000000   0.000000   0.000000
    15  H    0.000000   0.000000   0.000000   0.000000   0.000000   0.000000
    16  C    0.000000   0.000000   0.000000   0.000000   0.000000   0.000000
    17  H    0.000000   0.000000   0.000000   0.000000   0.000000   0.000000
    18  C    0.000000   0.000000   0.000000   0.000000   0.000000   0.000000
    19  H    0.864510   0.000000   0.000000   0.000000   0.000000   0.000000
    20  C    0.000000   4.525254   0.000000   0.000000   0.000000   0.000000
    21  H    0.000000   0.000000   0.805974   0.000000   0.000000   0.000000
    22  H    0.000000   0.000000   0.000000   0.827270   0.000000   0.000000
    23  H    0.000000   0.000000   0.000000   0.000000   0.818772   0.000000
    24  C    0.000000   0.000000   0.000000   0.000000   0.000000   4.285318
    25  H    0.000000   0.000000   0.000000   0.000000   0.000000   0.000000
    26  C    0.000000   0.000000   0.000000   0.000000   0.000000   0.000000
    27  H    0.000000   0.000000   0.000000   0.000000   0.000000   0.000000
    28  H    0.000000   0.000000   0.000000   0.000000   0.000000   0.000000
    29  C    0.000000   0.000000   0.000000   0.000000   0.000000   0.000000
    30  C    0.000000   0.000000   0.000000   0.000000   0.000000   0.000000
    31  H    0.000000   0.000000   0.000000   0.000000   0.000000   0.000000
    32  H    0.000000   0.000000   0.000000   0.000000   0.000000   0.000000
    33  H    0.000000   0.000000   0.000000   0.000000   0.000000   0.000000
    34  O    0.000000   0.000000   0.000000   0.000000   0.000000   0.000000
    35  O    0.000000   0.000000   0.000000   0.000000   0.000000   0.000000
              25         26         27         28         29         30
     1  C    0.000000   0.000000   0.000000   0.000000   0.000000   0.000000
     2  C    0.000000   0.000000   0.000000   0.000000   0.000000   0.000000
     3  C    0.000000   0.000000   0.000000   0.000000   0.000000   0.000000
     4  C    0.000000   0.000000   0.000000   0.000000   0.000000   0.000000
     5  H    0.000000   0.000000   0.000000   0.000000   0.000000   0.000000
     6  H    0.000000   0.000000   0.000000   0.000000   0.000000   0.000000
     7  C    0.000000   0.000000   0.000000   0.000000   0.000000   0.000000
     8  H    0.000000   0.000000   0.000000   0.000000   0.000000   0.000000
     9  H    0.000000   0.000000   0.000000   0.000000   0.000000   0.000000
    10  H    0.000000   0.000000   0.000000   0.000000   0.000000   0.000000
    11  N    0.000000   0.000000   0.000000   0.000000   0.000000   0.000000
    12  O    0.000000   0.000000   0.000000   0.000000   0.000000   0.000000
    13  O    0.000000   0.000000   0.000000   0.000000   0.000000   0.000000
    14  C    0.000000   0.000000   0.000000   0.000000   0.000000   0.000000
    15  H    0.000000   0.000000   0.000000   0.000000   0.000000   0.000000
    16  C    0.000000   0.000000   0.000000   0.000000   0.000000   0.000000
    17  H    0.000000   0.000000   0.000000   0.000000   0.000000   0.000000
    18  C    0.000000   0.000000   0.000000   0.000000   0.000000   0.000000
    19  H    0.000000   0.000000   0.000000   0.000000   0.000000   0.000000
    20  C    0.000000   0.000000   0.000000   0.000000   0.000000   0.000000
    21  H    0.000000   0.000000   0.000000   0.000000   0.000000   0.000000
    22  H    0.000000   0.000000   0.000000   0.000000   0.000000   0.000000
    23  H    0.000000   0.000000   0.000000   0.000000   0.000000   0.000000
    24  C    0.000000   0.000000   0.000000   0.000000   0.000000   0.000000
    25  H    0.829850   0.000000   0.000000   0.000000   0.000000   0.000000
    26  C    0.000000   3.991805   0.000000   0.000000   0.000000   0.000000
    27  H    0.000000   0.000000   0.849996   0.000000   0.000000   0.000000
    28  H    0.000000   0.000000   0.000000   0.857741   0.000000   0.000000
    29  C    0.000000   0.000000   0.000000   0.000000   3.298029   0.000000
    30  C    0.000000   0.000000   0.000000   0.000000   0.000000   4.651074
    31  H    0.000000   0.000000   0.000000   0.000000   0.000000   0.000000
    32  H    0.000000   0.000000   0.000000   0.000000   0.000000   0.000000
    33  H    0.000000   0.000000   0.000000   0.000000   0.000000   0.000000
    34  O    0.000000   0.000000   0.000000   0.000000   0.000000   0.000000
    35  O    0.000000   0.000000   0.000000   0.000000   0.000000   0.000000
              31         32         33         34         35
     1  C    0.000000   0.000000   0.000000   0.000000   0.000000
     2  C    0.000000   0.000000   0.000000   0.000000   0.000000
     3  C    0.000000   0.000000   0.000000   0.000000   0.000000
     4  C    0.000000   0.000000   0.000000   0.000000   0.000000
     5  H    0.000000   0.000000   0.000000   0.000000   0.000000
     6  H    0.000000   0.000000   0.000000   0.000000   0.000000
     7  C    0.000000   0.000000   0.000000   0.000000   0.000000
     8  H    0.000000   0.000000   0.000000   0.000000   0.000000
     9  H    0.000000   0.000000   0.000000   0.000000   0.000000
    10  H    0.000000   0.000000   0.000000   0.000000   0.000000
    11  N    0.000000   0.000000   0.000000   0.000000   0.000000
    12  O    0.000000   0.000000   0.000000   0.000000   0.000000
    13  O    0.000000   0.000000   0.000000   0.000000   0.000000
    14  C    0.000000   0.000000   0.000000   0.000000   0.000000
    15  H    0.000000   0.000000   0.000000   0.000000   0.000000
    16  C    0.000000   0.000000   0.000000   0.000000   0.000000
    17  H    0.000000   0.000000   0.000000   0.000000   0.000000
    18  C    0.000000   0.000000   0.000000   0.000000   0.000000
    19  H    0.000000   0.000000   0.000000   0.000000   0.000000
    20  C    0.000000   0.000000   0.000000   0.000000   0.000000
    21  H    0.000000   0.000000   0.000000   0.000000   0.000000
    22  H    0.000000   0.000000   0.000000   0.000000   0.000000
    23  H    0.000000   0.000000   0.000000   0.000000   0.000000
    24  C    0.000000   0.000000   0.000000   0.000000   0.000000
    25  H    0.000000   0.000000   0.000000   0.000000   0.000000
    26  C    0.000000   0.000000   0.000000   0.000000   0.000000
    27  H    0.000000   0.000000   0.000000   0.000000   0.000000
    28  H    0.000000   0.000000   0.000000   0.000000   0.000000
    29  C    0.000000   0.000000   0.000000   0.000000   0.000000
    30  C    0.000000   0.000000   0.000000   0.000000   0.000000
    31  H    0.784713   0.000000   0.000000   0.000000   0.000000
    32  H    0.000000   0.784010   0.000000   0.000000   0.000000
    33  H    0.000000   0.000000   0.776919   0.000000   0.000000
    34  O    0.000000   0.000000   0.000000   6.486649   0.000000
    35  O    0.000000   0.000000   0.000000   0.000000   6.517917
 Mulliken charges:
               1
     1  C    0.645505
     2  C   -0.403969
     3  C   -0.071437
     4  C    0.576800
     5  H    0.209922
     6  H    0.188406
     7  C   -0.252360
     8  H    0.160923
     9  H    0.170599
    10  H    0.155605
    11  N   -0.494818
    12  O   -0.516628
    13  O   -0.502980
    14  C   -0.299378
    15  H    0.172194
    16  C    0.003290
    17  H    0.158280
    18  C    0.055847
    19  H    0.135490
    20  C   -0.525254
    21  H    0.194026
    22  H    0.172730
    23  H    0.181228
    24  C   -0.285318
    25  H    0.170150
    26  C    0.008195
    27  H    0.150004
    28  H    0.142259
    29  C    0.701971
    30  C   -0.651074
    31  H    0.215287
    32  H    0.215990
    33  H    0.223081
    34  O   -0.486649
    35  O   -0.517917
 Sum of Mulliken charges =   0.00000
 Mulliken charges with hydrogens summed into heavy atoms:
               1
     1  C    0.645505
     2  C   -0.194047
     3  C    0.116969
     4  C    0.576800
     7  C    0.234766
    11  N   -0.494818
    12  O   -0.516628
    13  O   -0.502980
    14  C   -0.127183
    16  C    0.161571
    18  C    0.191337
    20  C    0.022731
    24  C   -0.115168
    26  C    0.300458
    29  C    0.701971
    30  C    0.003283
    34  O   -0.486649
    35  O   -0.517917
 APT charges:
               1
     1  C    1.946493
     2  C   -0.842236
     3  C    0.332264
     4  C    1.638003
     5  H    0.217696
     6  H    0.154866
     7  C   -0.266794
     8  H    0.176649
     9  H    0.198370
    10  H    0.157931
    11  N   -1.362120
    12  O   -1.059523
    13  O   -1.022904
    14  C   -0.638002
    15  H    0.228758
    16  C    0.336693
    17  H    0.226770
    18  C    0.305437
    19  H    0.095053
    20  C   -0.881259
    21  H    0.258658
    22  H    0.227732
    23  H    0.250004
    24  C   -1.048485
    25  H    0.193574
    26  C    0.354538
    27  H    0.106171
    28  H    0.150438
    29  C    1.899849
    30  C   -1.111916
    31  H    0.296235
    32  H    0.291815
    33  H    0.323655
    34  O   -1.103080
    35  O   -1.031277
 Sum of APT charges =   0.00005
 APT charges with hydrogens summed into heavy atoms:
               1
     1  C    1.946493
     2  C   -0.624540
     3  C    0.487131
     4  C    1.638003
     7  C    0.266156
    11  N   -1.362120
    12  O   -1.059523
    13  O   -1.022904
    14  C   -0.409244
    16  C    0.563463
    18  C    0.400490
    20  C   -0.144866
    24  C   -0.854910
    26  C    0.611147
    29  C    1.899849
    30  C   -0.200210
    34  O   -1.103080
    35  O   -1.031277
 Charge=              0.0000 electrons
 Dipole moment (field-independent basis, Debye):
    X=             -2.6128    Y=              0.6165    Z=              3.6468  Tot=              4.5284
 N-N= 7.805481468038D+02 E-N=-1.431076540287D+03  KE=-6.363177455540D+01
  Exact polarizability: 226.657  19.107 180.051  -0.618   9.388  99.984
 Approx polarizability: 147.858  12.418 105.392   1.700  15.781  66.189
 D2PCM: C-PCM CHGder 2nd derivatives, FixD1E=F FixD2E=F DoIter=F DoCFld=F I1PDM=0
 Calling FoFJK, ICntrl=    100127 FMM=F ISym2X=0 I1Cent= 0 IOpClX= 0 NMat=1 NMatS=1 NMatT=0.
 ***** Axes restored to original set *****
 -------------------------------------------------------------------
 Center     Atomic                   Forces (Hartrees/Bohr)
 Number     Number              X              Y              Z
 -------------------------------------------------------------------
      1        6           0.006626457   -0.010172030    0.005980519
      2        6          -0.022543378   -0.002606658   -0.001584313
      3        6           0.023238426   -0.012560486   -0.028159131
      4        6          -0.008122101    0.006550785    0.007890325
      5        1           0.000284752    0.001577759   -0.000949378
      6        1           0.000912857    0.005523506    0.009929065
      7        6           0.000450802    0.000035450   -0.000153285
      8        1          -0.000072008   -0.000022163   -0.000073189
      9        1           0.000032740   -0.000090910    0.000062901
     10        1          -0.000034905    0.000068401    0.000103256
     11        7           0.003846208    0.001616642   -0.002436553
     12        8           0.001956231    0.004753148   -0.001928270
     13        8          -0.002108591   -0.000112558   -0.000833809
     14        6           0.012410675   -0.003123481   -0.001413195
     15        1          -0.000027947   -0.000287982    0.000122932
     16        6          -0.014614207   -0.019316981    0.005614600
     17        1           0.000647857   -0.000963219   -0.000206448
     18        6          -0.004070984    0.006858059    0.001936756
     19        1          -0.000097784    0.000562381   -0.000470550
     20        6           0.001680904    0.001017885    0.000101967
     21        1          -0.000110149   -0.000335308   -0.000018360
     22        1          -0.000182400   -0.000169686    0.000300112
     23        1          -0.000280420    0.000015254   -0.000247172
     24        6          -0.002790369    0.029025551    0.018888424
     25        1          -0.001983181   -0.003620047   -0.007635218
     26        6           0.003595019   -0.004604151   -0.003966086
     27        1           0.000020454    0.000053362   -0.000019875
     28        1           0.000615474    0.001152354   -0.000596870
     29        6           0.001850761    0.002142704    0.000450077
     30        6           0.002299690   -0.002058977    0.000608218
     31        1          -0.000252108    0.000072876    0.000080170
     32        1          -0.000179195   -0.000084164   -0.000108216
     33        1          -0.000844961    0.000453214   -0.000384599
     34        8          -0.001715981   -0.001041740   -0.000647959
     35        8          -0.000438637   -0.000308788   -0.000236845
 -------------------------------------------------------------------
 Cartesian Forces:  Max     0.029025551 RMS     0.006740728
 FormGI is forming the generalized inverse of G from B-inverse, IUseBI=4.

 GradGradGradGradGradGradGradGradGradGradGradGradGradGradGradGradGradGrad
 Berny optimization.
 Internal  Forces:  Max     0.018481308 RMS     0.002391515
 Search for a saddle point.
 Step number   1 out of a maximum of  210
 All quantities printed in internal units (Hartrees-Bohrs-Radians)
 Second derivative matrix not updated -- analytic derivatives used.
 ITU=  0
 LST/QST climbing along tangent vector
     Eigenvalues ---   -0.01464  -0.00007   0.00005   0.00015   0.00044
     Eigenvalues ---    0.00054   0.00131   0.00219   0.00329   0.00514
     Eigenvalues ---    0.00576   0.00696   0.00707   0.00883   0.00995
     Eigenvalues ---    0.01189   0.01248   0.01284   0.01430   0.01665
     Eigenvalues ---    0.01761   0.01924   0.01975   0.02064   0.02214
     Eigenvalues ---    0.02312   0.02416   0.02610   0.02779   0.02945
     Eigenvalues ---    0.03137   0.03209   0.03355   0.03493   0.03621
     Eigenvalues ---    0.03800   0.04036   0.04179   0.04505   0.04540
     Eigenvalues ---    0.04548   0.04917   0.05249   0.05933   0.06426
     Eigenvalues ---    0.07100   0.07627   0.08166   0.08353   0.08728
     Eigenvalues ---    0.09791   0.10351   0.10920   0.10940   0.11144
     Eigenvalues ---    0.11322   0.11891   0.12182   0.12394   0.13053
     Eigenvalues ---    0.13623   0.14048   0.14551   0.17341   0.18419
     Eigenvalues ---    0.19680   0.21424   0.23163   0.24088   0.25189
     Eigenvalues ---    0.25364   0.25420   0.25633   0.25666   0.25796
     Eigenvalues ---    0.25803   0.25959   0.26135   0.26514   0.27008
     Eigenvalues ---    0.27270   0.27410   0.27708   0.28392   0.29432
     Eigenvalues ---    0.33344   0.34264   0.36504   0.38433   0.40749
     Eigenvalues ---    0.42473   0.44729   0.46810   0.51904   0.56830
     Eigenvalues ---    0.64315   0.81140   0.87963   0.908841000.00000
     Eigenvalues --- 1000.000001000.000001000.000001000.000001000.00000
     Eigenvalues --- 1000.000001000.000001000.000001000.000001000.00000
     Eigenvalues --- 1000.000001000.000001000.000001000.000001000.00000
     Eigenvalues --- 1000.000001000.000001000.000001000.000001000.00000
     Eigenvalues --- 1000.000001000.000001000.000001000.000001000.00000
     Eigenvalues --- 1000.000001000.000001000.000001000.000001000.00000
     Eigenvalues --- 1000.000001000.000001000.000001000.000001000.00000
     Eigenvalues --- 1000.000001000.000001000.000001000.000001000.00000
     Eigenvalues --- 1000.000001000.000001000.000001000.000001000.00000
     Eigenvalues --- 1000.000001000.000001000.000001000.000001000.00000
     Eigenvalues --- 1000.000001000.000001000.000001000.000001000.00000
     Eigenvalues --- 1000.000001000.000001000.000001000.000001000.00000
     Eigenvalues --- 1000.000001000.000001000.000001000.000001000.00000
     Eigenvalues --- 1000.000001000.000001000.000001000.000001000.00000
     Eigenvalues --- 1000.000001000.000001000.000001000.000001000.00000
     Eigenvalues --- 1000.000001000.000001000.000001000.000001000.00000
     Eigenvalues --- 1000.000001000.000001000.000001000.000001000.00000
     Eigenvalues --- 1000.000001000.000001000.000001000.000001000.00000
     Eigenvalues --- 1000.000001000.000001000.000001000.000001000.00000
     Eigenvalues --- 1000.000001000.000001000.000001000.000001000.00000
     Eigenvalues --- 1000.000001000.000001000.000001000.000001000.00000
     Eigenvalues --- 1000.000001000.000001000.000001000.000001000.00000
     Eigenvalues --- 1000.000001000.000001000.000001000.000001000.00000
     Eigenvalues --- 1000.000001000.000001000.000001000.000001000.00000
     Eigenvalues --- 1000.000001000.000001000.000001000.000001000.00000
     Eigenvalues --- 1000.000001000.000001000.000001000.000001000.00000
[...]
 0023435,-0.00005396,0.00001733,0.00004492,-0.00000214,-0.00003261,-0.0
 0004111,0.00001410,-0.00001456,-0.00003152,0.00001678,-0.00000471,-0.0
 0002735,-0.00065388,-0.00009626,0.00041895,-0.00199477,0.00020947,0.00
 121150,-0.00028267,0.00002576,0.00013016,-0.00001049,-0.00010786,0.000
 08608,-0.00001915,0.00004115,-0.00005117,-0.00022307,-0.00001971,0.000
 17715,-0.00002546,0.00007489,-0.00008156,0.00010369,0.00012185,0.00002
 748,0.00000831,-0.00001491,-0.00001337,-0.00010965,-0.00003838,0.00007
 882,0.00001983,-0.00000535,-0.00002242,0.00000492,0.00001676,-0.000035
 35,0.00001599,0.00000929,-0.00000198,0.00002203,-0.00009773,0.00033941
 ,0.00001226,-0.00000631,-0.00001966,-0.00146903,-0.00300572,-0.0005620
 4,0.00022931,0.00004668,0.00039259,-0.00133977,0.00030827,-0.00165452,
 0.01373709,0.03080117,-0.08002459,0.01562244,-0.02471933,0.40136991,-0
 .00041103,-0.00002965,0.00015209,0.00017838,-0.00004575,-0.00008033,0.
 00002699,0.00006399,0.00006494,-0.00115266,-0.00002577,0.00036995,-0.0
 0000706,-0.00002145,0.00004658,-0.00007745,-0.00001743,0.00005899,0.00
 004415,0.00000068,-0.00001328,0.00000225,0.00002282,0.00000603,-0.0000
 1840,0.00000406,0.00000850,-0.00000609,0.00000449,-0.00001567,0.000560
 97,-0.00003094,-0.00015428,0.00101996,-0.00010536,-0.00025270,0.000258
 88,-0.00004303,-0.00005816,0.00017148,0.00004455,-0.00000618,-0.000005
 00,-0.00004324,0.00001040,-0.00005876,-0.00010141,-0.00000649,0.000015
 51,-0.00004993,0.00000077,-0.00014696,0.00001026,-0.00000457,-0.000004
 68,0.00001492,-0.00002233,0.00012820,0.00004217,-0.00000692,-0.0000291
 1,0.00000272,0.00000133,-0.00001581,-0.00001823,0.00001363,-0.00002055
 ,-0.00000995,-0.00001519,0.00008332,0.00013301,0.00001249,-0.00000071,
 -0.00000300,-0.00005884,-0.00060625,-0.00012264,-0.00002779,0.00004896
 ,-0.00005497,-0.00016013,-0.00096500,-0.00045204,-0.00038938,-0.002816
 62,-0.01264134,0.01348979,-0.08814038,-0.00621959,0.08514849,0.1027296
 9,-0.00001687,0.00017677,-0.00007997,0.00014349,-0.00008029,-0.0000142
 8,-0.00008381,0.00004340,0.00013291,0.00015087,0.00019462,-0.00009820,
 -0.00000322,-0.00000453,0.00001109,-0.00002414,-0.00000555,0.00000427,
 -0.00002344,-0.00000211,0.00000214,0.00001402,0.00000703,0.00000087,0.
 00000414,0.00000242,0.00000089,0.00000815,0.00000153,-0.00000195,-0.00
 009538,-0.00008486,0.00005576,-0.00018924,-0.00019513,0.00008035,0.000
 01371,-0.00003394,0.00000752,0.00001626,0.00001413,0.00000497,-0.00000
 053,-0.00000330,0.00000217,0.00004399,-0.00000213,-0.00004125,-0.00002
 140,-0.00000078,0.00000550,-0.00002555,-0.00001497,-0.00000342,-0.0000
 0110,0.00000944,-0.00000272,0.00003215,-0.00000396,-0.00000385,-0.0000
 0652,0.00000625,0.00000063,-0.00000416,-0.00000116,0.00000267,-0.00000
 555,0.00000086,-0.00000313,0.00010971,-0.00010489,-0.00003067,0.000011
 10,0.00003088,-0.00001201,-0.00062270,0.00005027,-0.00013109,-0.000000
 74,-0.00004845,-0.00003525,-0.00027085,0.00014242,-0.00006796,-0.01927
 328,-0.01126396,0.02731429,-0.00553946,-0.03095642,0.00697189,0.012173
 34,0.04118853,0.00014890,-0.00003946,0.00000790,-0.00008334,0.00005986
 ,-0.00000640,-0.00006218,-0.00000815,-0.00002347,0.00041788,-0.0000066
 9,-0.00004035,0.00000683,0.00000599,-0.00001181,0.00012216,-0.00001472
 ,-0.00001011,-0.00000736,-0.00000696,-0.00000683,-0.00000440,-0.000005
 21,0.00000666,0.00000606,0.00000208,0.00000285,-0.00000397,-0.00000023
 ,0.00002058,-0.00019784,0.00004440,-0.00000215,-0.00046275,0.00005428,
 -0.00013667,-0.00010014,0.00002485,0.00000436,-0.00010749,-0.00000389,
 -0.00002139,0.00000588,0.00001863,0.00000385,0.00006581,0.00006205,-0.
 00001516,0.00002770,0.00002404,0.00001176,0.00006933,-0.00002620,0.000
 00324,0.00000063,-0.00001011,0.00001907,-0.00005806,-0.00001349,-0.000
 01420,0.00001348,-0.00000219,0.00000484,0.00000826,0.00000709,-0.00000
 082,0.00000902,0.00000304,0.00001130,-0.00014845,0.00003628,-0.0001598
 4,-0.00001573,-0.00001648,0.00005827,0.00049058,-0.00050770,0.00049881
 ,-0.00011413,0.00001601,0.00004503,-0.00018500,-0.00010175,0.00023392,
 0.01244456,0.01933677,-0.01122335,0.08552767,0.00795833,-0.15652454,-0
 .10729661,-0.01622806,0.18832734,-0.00033583,-0.00005942,0.00012309,0.
 00007991,-0.00004387,-0.00003072,0.00013042,0.00002131,-0.00002474,-0.
 00098608,-0.00004921,0.00023414,-0.00000844,-0.00001447,0.00003221,-0.
 00015098,-0.00001658,0.00002119,0.00004255,0.00000099,-0.00001210,-0.0
 0000140,0.00001818,0.00000206,-0.00001703,0.00000223,0.00000517,-0.000
 00656,0.00000402,-0.00001630,0.00047287,-0.00002609,-0.00011230,0.0008
 1287,-0.00001313,-0.00000109,0.00021243,-0.00003131,-0.00004418,0.0001
 5973,0.00001917,0.00000260,-0.00000800,-0.00003389,0.00000421,-0.00010
 319,-0.00009799,0.00003606,0.00000520,-0.00003303,-0.00000697,-0.00011
 203,0.00004180,0.00000622,-0.00000344,0.00000704,-0.00002096,0.0000943
 7,0.00003493,0.00000072,-0.00002290,-0.00000058,-0.00000067,-0.0000130
 0,-0.00001414,0.00000845,-0.00001583,-0.00000814,-0.00001192,0.0000965
 3,0.00011676,0.00007892,0.00000139,-0.00000889,-0.00004697,-0.00017957
 ,-0.00017802,-0.00008028,0.00004612,-0.00002174,-0.00004659,0.00004426
 ,0.00004138,-0.00004670,-0.00194780,-0.01710789,-0.00314131,-0.0796171
 3,-0.04275210,-0.06779509,0.00673573,0.00252457,0.00590081,0.09020130,
 -0.00009940,0.00014897,-0.00002634,0.00015841,-0.00008691,-0.00002241,
 -0.00003158,0.00002561,0.00011919,-0.00018590,0.00017234,0.00005672,-0
 .00000440,-0.00000429,0.00001889,-0.00009823,0.00000753,0.00001126,-0.
 00001316,-0.00000573,-0.00000700,0.00001824,0.00001505,0.00000728,0.00
 000168,0.00000343,0.00000604,0.00000715,0.00000194,-0.00000203,0.00007
 028,-0.00009623,-0.00000939,0.00019146,-0.00022532,-0.00006327,0.00006
 856,-0.00004174,-0.00000954,0.00003776,0.00001468,0.00000472,-0.000003
 35,-0.00000786,0.00000159,0.00001102,-0.00000705,-0.00003582,-0.000008
 59,-0.00000307,-0.00000331,-0.00004824,-0.00001316,-0.00000273,-0.0000
 0038,0.00001131,-0.00000702,0.00005061,0.00000209,-0.00000335,-0.00001
 127,0.00000685,0.00000106,-0.00000674,-0.00000331,0.00000434,-0.000008
 21,-0.00000017,-0.00000531,0.00006027,-0.00006163,0.00001443,0.0000050
 7,0.00001598,-0.00001913,0.00014054,-0.00000390,0.00025301,0.00005381,
 -0.00003890,-0.00001473,-0.00003597,-0.00004604,-0.00005527,-0.0198716
 6,-0.03289526,-0.01673066,-0.04058796,-0.07109556,-0.05860964,-0.00017
 187,0.00255072,-0.00532482,0.05866113,0.09628200,-0.00021795,0.0000389
 2,0.00009035,0.00016124,-0.00004811,-0.00009072,-0.00008581,0.00007758
 ,0.00010626,-0.00053051,-0.00003321,0.00027458,0.00000133,-0.00001424,
 0.00004229,0.00001656,-0.00000208,0.00006930,0.00001862,-0.00000596,-0
 .00001579,0.00000376,0.00001350,0.00001294,-0.00000616,0.00000449,0.00
 001036,-0.00000324,0.00000129,0.00000168,0.00026040,-0.00001465,-0.000
 12443,0.00061794,-0.00002197,-0.00019809,0.00012862,-0.00002617,-0.000
 04270,0.00004990,0.00002039,-0.00000958,-0.00000061,-0.00001615,0.0000
 1191,0.00000984,-0.00001454,-0.00003994,-0.00002356,-0.00001899,0.0000
 1262,-0.00005365,-0.00001258,-0.00000363,-0.00000205,0.00000713,-0.000
 00402,0.00005346,0.00001246,-0.00001874,-0.00001146,0.00000309,0.00000
 532,-0.00000522,-0.00000621,0.00001066,-0.00000852,-0.00000278,-0.0000
 0291,0.00008271,-0.00007681,-0.00000891,0.00001193,0.00000994,-0.00001
 169,-0.00049103,0.00031672,-0.00034661,0.00003537,-0.00004135,-0.00003
 323,-0.00012069,-0.00007452,-0.00010595,-0.00134871,-0.00764680,0.0074
 9051,-0.06875598,-0.06314851,-0.12973208,-0.00455216,-0.00858320,-0.02
 244156,0.08317861,0.07581511,0.14974200,-0.00153572,-0.00122042,0.0011
 3113,-0.00015900,0.00019590,-0.00026156,0.00042960,-0.00006221,-0.0005
 2340,-0.00851650,-0.00222205,0.00340584,0.00001003,-0.00004532,0.00012
 608,-0.00013001,-0.00030358,0.00037834,0.00026331,-0.00001002,-0.00008
 768,0.00001514,0.00009752,0.00001959,-0.00007110,-0.00001040,0.0000403
 2,-0.00002563,0.00002269,-0.00008392,0.00336130,0.00029706,-0.00118181
 ,0.00439204,0.00258266,-0.00214174,0.00098962,0.00003134,-0.00030096,0
 .00050469,0.00003578,-0.00004304,-0.00001710,-0.00010528,0.00002063,-0
 .00043887,-0.00037638,0.00025673,0.00014997,-0.00009732,-0.00002148,-0
 .00032952,0.00018786,0.00004006,-0.00001352,-0.00000558,-0.00007156,0.
 00023747,0.00013644,-0.00000184,-0.00006291,-0.00002068,0.00000064,-0.
 00002741,-0.00004465,0.00002966,-0.00003727,-0.00002704,-0.00003148,-0
 .00012315,0.00093334,0.00016380,-0.00006995,-0.00016479,-0.00016545,0.
 00037922,-0.00242689,0.00064141,-0.00000926,0.00016376,-0.00018311,0.0
 0126812,0.00130771,0.00062946,0.00854288,0.01356315,-0.00286543,-0.150
 42731,0.07646563,-0.02403428,-0.01682537,0.00820796,0.00579366,-0.0149
 2607,0.00327521,-0.00988722,0.17745867,0.00036366,0.00101320,-0.000606
 71,0.00060685,-0.00035690,0.00004721,-0.00045380,0.00011109,0.00056270
 ,0.00234858,0.00188324,-0.00143051,-0.00001190,-0.00001316,0.00002018,
 -0.00048117,-0.00008225,0.00013281,-0.00012009,-0.00000539,0.00004003,
 0.00003613,-0.00001027,-0.00000016,0.00003086,0.00000497,-0.00000476,0
 .00003180,-0.00000915,0.00002110,-0.00135267,-0.00046502,0.00062961,-0
 .00239809,-0.00199543,0.00083906,-0.00023244,-0.00013166,0.00010990,-0
 .00006650,0.00006073,0.00003050,0.00000245,-0.00000124,0.00000464,0.00
 020274,0.00010631,-0.00021015,-0.00006099,-0.00000841,0.00001065,-0.00
 002008,-0.00010430,-0.00002938,0.00000376,0.00003653,0.00000250,0.0000
 5656,-0.00003017,-0.00000552,-0.00000809,0.00002324,0.00000072,-0.0000
 0749,0.00000173,0.00000255,-0.00000787,0.00000572,-0.00000527,0.000176
 17,-0.00051553,-0.00010708,0.00002751,0.00009144,-0.00001071,-0.002019
 64,-0.00179240,-0.00122917,0.00009016,-0.00006748,-0.00016273,-0.00050
 312,0.00063391,-0.00050095,0.02119274,-0.03440107,0.01004097,0.0766123
 5,-0.08210582,0.01487860,0.00581122,0.00205934,-0.00236917,-0.00270642
 ,0.00573482,-0.00008621,-0.09580302,0.10978465,-0.00022535,-0.00020766
 ,0.00027614,0.00004621,0.00010920,-0.00013375,-0.00007425,0.00005729,0
 .00001656,-0.00073254,-0.00048054,0.00085317,0.00000835,-0.00000688,0.
 00002725,0.00037499,0.00010393,-0.00001066,0.00003550,0.00000264,-0.00
 001307,0.00000029,0.00002005,0.00001797,-0.00000762,0.00000614,0.00001
 450,-0.00000818,0.00000102,0.00001000,0.00054764,0.00015105,-0.0002891
 6,0.00053560,0.00050860,-0.00121353,0.00014276,0.00001198,-0.00007597,
 -0.00002981,0.00002832,-0.00003345,0.00000549,-0.00000755,0.00001476,0
 .00006066,0.00002482,-0.00004959,0.00003519,-0.00001363,0.00001629,-0.
 00003283,-0.00006565,-0.00001466,-0.00000187,0.00000283,0.00000710,0.0
 0003198,0.00001517,-0.00002573,-0.00000590,0.00000035,0.00000800,-0.00
 000082,-0.00000492,0.00001132,-0.00000443,-0.00000318,0.00000097,-0.00
 013210,0.00010140,-0.00013609,-0.00001687,-0.00003302,0.00001230,-0.00
 046009,-0.00220314,0.00036686,-0.00000701,0.00002763,-0.00010129,0.000
 35399,0.00111678,0.00065501,-0.00345947,0.01245962,0.00213062,-0.02326
 283,0.01380926,-0.03513750,0.01564664,-0.00683442,0.00176843,-0.016952
 47,0.00442172,-0.00368049,0.02879711,-0.02270552,0.03664008,0.00260129
 ,-0.00330992,0.00069613,-0.00420255,0.00141542,0.00090988,0.00192993,-
 0.00102846,-0.00357780,-0.00065370,-0.00339435,0.00077936,0.00010630,0
 .00033618,-0.00061398,0.00068313,-0.00043312,-0.00060972,0.00001033,0.
 00000076,0.00001732,-0.00009404,-0.00012751,-0.00007361,0.00006860,-0.
 00006355,-0.00005753,-0.00002297,-0.00000332,0.00006314,0.00003820,0.0
 0132261,-0.00038847,0.00161480,0.00191817,-0.00024683,-0.00159994,0.00
 079344,0.00019766,-0.00111711,-0.00015152,0.00039093,0.00002339,0.0004
 9390,-0.00021796,-0.00078026,-0.00051509,0.00050102,-0.00006290,-0.000
 02441,-0.00027942,0.00149241,0.00053840,0.00030224,0.00005624,-0.00028
 403,0.00014918,-0.00145128,-0.00035918,0.00016297,0.00029452,-0.000109
 05,-0.00004269,0.00015487,0.00018775,-0.00017769,0.00020924,0.00009000
 ,0.00015868,-0.04827599,0.01532133,-0.02108274,-0.00340692,-0.00136062
 ,0.00176865,-0.07312460,0.04276772,-0.06500178,-0.00406868,0.00339312,
 -0.01404609,-0.00279853,0.00537147,-0.00727594,-0.11130726,-0.09753758
 ,-0.03703923,-0.00670497,-0.02760693,-0.00908301,0.00034600,0.00097974
 ,-0.00216648,0.00039168,-0.00135052,0.00191867,-0.00353916,0.00054600,
 -0.00142742,0.32035018,0.00009871,-0.00112698,0.00049479,-0.00111172,0
 .00028475,0.00029527,0.00203710,-0.00069635,-0.00155855,-0.00222559,-0
 .00108970,0.00107225,0.00002320,0.00004091,-0.00007454,-0.00050591,0.0
 0009833,-0.00002134,0.00011940,0.00000427,-0.00001677,-0.00003645,-0.0
 0000930,-0.00001443,-0.00001231,-0.00002399,-0.00000211,-0.00002398,0.
 00000218,-0.00000611,0.00095070,0.00034202,-0.00037598,0.00189784,0.00
 014278,-0.00058450,-0.00008202,0.00021049,-0.00004449,-0.00003309,0.00
 014223,0.00005639,0.00002317,0.00005550,-0.00004744,-0.00131636,-0.000
 27974,0.00024959,0.00071136,-0.00034606,-0.00000529,0.00028843,0.00034
 266,0.00010702,-0.00001902,-0.00012114,0.00002365,-0.00036835,-0.00000
 394,0.00005866,0.00006308,-0.00005941,-0.00001555,0.00004125,0.0000283
 8,-0.00004356,0.00005419,0.00000662,0.00003646,0.00532660,0.00720192,-
 0.00445604,-0.00097951,-0.00014475,0.00042271,0.03459441,-0.10078826,0
 .06027733,-0.00627010,0.00823214,-0.00553035,0.01768538,-0.01961889,0.
 02536938,-0.07300320,-0.13743121,-0.03174865,-0.02858520,-0.02995060,-
 0.00805164,0.00045898,-0.00138401,-0.00156931,0.00015557,-0.00231830,0
 .00237509,-0.00154729,0.00143883,-0.00060252,0.04502191,0.25304056,0.0
 0114519,-0.00111411,-0.00007837,-0.00211642,-0.00000292,0.00090681,0.0
 0306061,-0.00158553,-0.00255128,0.00011612,-0.00167272,0.00011334,-0.0
 0000351,0.00018218,-0.00026017,-0.00144529,0.00090474,-0.00028053,0.00
 000808,0.00001304,0.00001361,-0.00003790,-0.00007154,-0.00004802,0.000
 02981,-0.00004524,-0.00004093,-0.00000575,-0.00001252,-0.00000503,-0.0
 0020871,0.00034887,0.00012764,0.00060168,0.00082026,0.00046120,-0.0007
 2239,0.00032242,0.00016992,-0.00040028,-0.00042605,0.00006019,-0.00005
 006,0.00023616,-0.00017638,0.00003780,0.00089951,0.00090493,-0.0001724
 4,0.00041808,-0.00042066,0.00087371,0.00069539,0.00020716,0.00001533,-
 0.00021978,0.00002692,-0.00085995,-0.00018288,0.00022269,0.00015542,-0
 .00008808,-0.00005501,0.00007722,0.00010807,-0.00013584,0.00012504,0.0
 0005105,0.00007416,-0.01913782,0.00320623,0.00411517,-0.00011006,-0.00
 091248,0.00040094,-0.05268906,0.06607264,-0.11019618,-0.02043356,0.006
 12348,-0.03712418,-0.01067580,0.01199928,-0.01254790,-0.04954440,-0.05
 406820,-0.05055107,-0.00719571,-0.00711076,0.00933385,-0.00041333,-0.0
 0121104,-0.00154722,0.00006323,0.00067891,0.00060886,-0.00164908,0.001
 16745,-0.00149997,0.23885849,-0.03755840,0.27337213,0.00125213,-0.0010
 8698,0.00010153,-0.00155432,0.00054285,0.00036073,0.00076663,-0.000521
 56,-0.00122414,0.00084473,-0.00127038,0.00007512,0.00005132,0.00012000
 ,-0.00023620,0.00053904,-0.00014274,-0.00023777,-0.00004595,0.00000201
 ,0.00002336,-0.00003008,-0.00006549,-0.00003115,0.00004419,-0.00002636
 ,-0.00002795,0.00000124,-0.00000555,0.00003535,-0.00050220,0.00050869,
 -0.00002580,-0.00014867,0.00076927,0.00006419,-0.00079777,0.00032285,0
 .00011924,-0.00064363,-0.00021464,-0.00002574,0.00001859,0.00020829,-0
 .00006924,0.00026450,0.00030089,0.00034165,0.00011142,0.00031517,-0.00
 005740,0.00068637,0.00017393,0.00009226,0.00000538,-0.00012878,0.00008
 384,-0.00064642,-0.00015013,0.00007177,0.00013402,-0.00004423,-0.00001
 489,0.00007650,0.00008375,-0.00007511,0.00010016,0.00004099,0.00007069
 ,-0.00145968,0.00120982,-0.00101450,-0.00024542,-0.00023281,0.00032908
 ,0.00413532,-0.01184630,0.00013987,-0.00221642,0.00167693,-0.00108261,
 0.00030654,-0.00130304,0.00099807,-0.17768848,0.18063787,-0.19974442,0
 .01610980,0.00583289,-0.00918184,-0.00104305,0.00177453,-0.00004567,-0
 .00107237,-0.00027327,-0.00044446,-0.00071720,-0.00188597,0.00021923,-
 0.06716369,0.00656429,-0.07729997,0.23052470,-0.00085148,-0.00012103,0
 .00031667,0.00034634,-0.00010318,-0.00018864,0.00011030,0.00021051,0.0
 0000319,-0.00216557,-0.00011721,0.00065999,-0.00000519,-0.00008809,0.0
 0013845,-0.00033874,-0.00007435,0.00025748,0.00012057,0.00000530,-0.00
 003024,-0.00001613,0.00002778,0.00000937,-0.00004142,0.00000023,0.0000
 1551,-0.00002285,0.00000380,-0.00002562,0.00105825,0.00000462,-0.00030
 196,0.00168025,-0.00003067,-0.00031052,0.00050928,-0.00004672,-0.00012
 601,0.00041467,0.00015943,-0.00005320,0.00001500,-0.00013603,0.0000554
 8,-0.00026679,-0.00032483,0.00001252,0.00009952,-0.00023930,0.00008440
 ,-0.00026993,0.00009562,-0.00000171,-0.00001795,0.00001119,-0.00004216
 ,0.00020581,0.00012198,-0.00003561,-0.00004619,-0.00001343,0.00000680,
 -0.00001849,-0.00004720,0.00003646,-0.00002884,-0.00002945,-0.00002170
 ,0.00021674,0.00045968,-0.00031902,-0.00001143,-0.00001754,-0.00010654
 ,-0.00324551,0.00159954,-0.00089769,0.00016274,-0.00008636,-0.00018325
 ,-0.00060758,-0.00010043,-0.00078042,0.15731964,-0.26578818,0.24861447
 ,0.01044063,-0.04538397,0.04117824,0.00141990,-0.00228784,-0.00139882,
 0.00156756,0.00196191,0.00119926,-0.00301275,-0.00089461,0.00018873,0.
 01716365,0.02378097,0.01203703,-0.18188616,0.28748107,0.00156713,-0.00
 093298,-0.00015145,-0.00179305,0.00045392,0.00061652,0.00110158,-0.000
 82194,-0.00143300,0.00189036,-0.00100918,-0.00046113,0.00001771,0.0001
 8886,-0.00033661,0.00010652,0.00014677,-0.00053621,-0.00009511,0.00000
 672,0.00004577,-0.00002172,-0.00007260,-0.00004540,0.00005221,-0.00002
 594,-0.00004297,0.00001084,-0.00000645,0.00002579,-0.00097010,0.000376
 74,0.00024736,-0.00116977,0.00067893,0.00040768,-0.00094689,0.00029484
 ,0.00020867,-0.00057671,-0.00029442,0.00008877,-0.00001263,0.00023609,
 -0.00012996,0.00019521,0.00040401,0.00039403,0.00007940,0.00036130,-0.
 00019436,0.00067466,0.00022804,0.00009376,0.00001709,-0.00012341,0.000
 06438,-0.00064100,-0.00017988,0.00014431,0.00012936,-0.00003545,-0.000
 03310,0.00006290,0.00009242,-0.00010259,0.00009652,0.00004644,0.000058
 19,-0.00272274,0.00184658,-0.00190039,-0.00050968,-0.00033791,0.000418
 69,0.00055162,-0.01077958,0.00731257,-0.00120838,0.00106459,-0.0000182
 7,0.00060735,-0.00120154,0.00115276,-0.18927025,0.27221623,-0.36803995
 ,-0.01072274,0.03644263,-0.00797514,-0.00149624,-0.00121502,0.00115755
 ,-0.00130593,-0.00046265,-0.00157829,0.00206091,0.00092270,-0.00043232
 ,-0.08347016,0.00148211,-0.07360593,0.28770953,-0.29999070,0.44457697\
 \-0.00000142,-0.00000226,-0.00000011,-0.00000031,-0.00000129,-0.000000
 35,-0.00000016,0.00000020,0.00000006,-0.00000118,-0.00000002,0.0000005
 5,0.00000007,-0.00000196,-0.00000055,-0.00000062,0.00000097,0.00000006
 ,-0.00000331,-0.00000138,0.00000061,-0.00000412,-0.00000082,0.00000096
 ,-0.00000354,-0.00000249,0.00000036,-0.00000290,-0.00000102,0.00000057
 ,-0.00000190,-0.00000125,0.00000032,-0.00000255,0.00000104,0.00000116,
 -0.00000164,-0.00000350,-0.00000044,0.00000246,-0.00000126,-0.00000101
 ,0.00000322,-0.00000156,-0.00000135,0.00000224,0.00000014,-0.00000053,
 0.00000295,0.00000091,-0.00000062,0.00000153,-0.00000218,-0.00000101,0
 .00000096,-0.00000192,-0.00000078,0.00000160,-0.00000371,-0.00000144,0
 .00000055,-0.00000423,-0.00000126,0.00000203,-0.00000396,-0.00000163,0
 .00000222,-0.00000422,-0.00000175,0.00000114,0.00000079,0.00000005,0.0
 0000079,0.00000021,-0.00000021,0.00000130,0.00000205,0.00000015,0.0000
 0187,0.00000279,0.00000009,0.00000006,0.00000306,0.00000046,0.00000087
 ,0.00000311,0.00000068,-0.00000087,0.00000363,0.00000143,-0.00000080,0
 .00000489,0.00000153,-0.00000150,0.00000429,0.00000158,-0.00000140,0.0
 0000424,0.00000105,0.00000167,0.00000271,0.00000084,0.00000067,0.00000
 399,0.00000052\\\@


 ADVERTISING--  HE WHO HAS SOMETHING TO SELL AND GOES AND WHISPERS
                IN A WELL, IS NOT SO APT TO GET THE DOLLARS AS HE
                WHO CLIMBS A TREE AND HOLLERS.

                   -- FROM THE BACK OF A SUGAR PACKET
 Job cpu time:       0 days  0 hours 12 minutes 38.8 seconds.
 File lengths (MBytes):  RWF=    178 Int=      0 D2E=      0 Chk=     19 Scr=      1
 Normal termination of Gaussian 09 at Fri Jul 24 11:10:54 2020.
