 Entering Gaussian System, Link 0=g09
 Input=freq_TS_claisen_PM6_toluene.com
 Output=freq_TS_claisen_PM6_toluene.log
 Initial command:
 /apps/applications/gaussian/G09.D01/2/default/g09/l1.exe "/local/695438.1.40core-192G.q/Gau-184700.inp" -scrdir="/local/695438.1.40core-192G.q/"
 Entering Link 1 = /apps/applications/gaussian/G09.D01/2/default/g09/l1.exe PID=    184701.
  
 Copyright (c) 1988,1990,1992,1993,1995,1998,2003,2009,2013,
            Gaussian, Inc.  All Rights Reserved.
  
 This is part of the Gaussian(R) 09 program.  It is based on
 the Gaussian(R) 03 system (copyright 2003, Gaussian, Inc.),
 the Gaussian(R) 98 system (copyright 1998, Gaussian, Inc.),
 the Gaussian(R) 94 system (copyright 1995, Gaussian, Inc.),
 the Gaussian 92(TM) system (copyright 1992, Gaussian, Inc.),
 the Gaussian 90(TM) system (copyright 1990, Gaussian, Inc.),
 the Gaussian 88(TM) system (copyright 1988, Gaussian, Inc.),
 the Gaussian 86(TM) system (copyright 1986, Carnegie Mellon
 University), and the Gaussian 82(TM) system (copyright 1983,
 Carnegie Mellon University). Gaussian is a federally registered
 trademark of Gaussian, Inc.
  
 This software contains proprietary and confidential information,
 including trade secrets, belonging to Gaussian, Inc.
  
 This software is provided under written license and may be
 used, copied, transmitted, or stored only in accord with that
 written license.
  
 The following legend is applicable only to US Government
 contracts under FAR:
  
                    RESTRICTED RIGHTS LEGEND
  
 Use, reproduction and disclosure by the US Government is
 subject to restrictions as set forth in subparagraphs (a)
 and (c) of the Commercial Computer Software - Restricted
 Rights clause in FAR 52.227-19.
  
 Gaussian, Inc.
 340 Quinnipiac St., Bldg. 40, Wallingford CT 06492
  
  
 ---------------------------------------------------------------
 Warning -- This program may not be used in any manner that
 competes with the business of Gaussian, Inc. or will provide
 assistance to any competitor of Gaussian, Inc.  The licensee
 of this program is prohibited from giving any competitor of
 Gaussian, Inc. access to this program.  By using this program,
 the user acknowledges that Gaussian, Inc. is engaged in the
 business of creating and licensing software in the field of
 computational chemistry and represents and warrants to the
 licensee that it is not a competitor of Gaussian, Inc. and that
 it will not use this program in any manner prohibited above.
 ---------------------------------------------------------------
  

 Cite this work as:
 Gaussian 09, Revision D.01,
 M. J. Frisch, G. W. Trucks, H. B. Schlegel, G. E. Scuseria, 
 M. A. Robb, J. R. Cheeseman, G. Scalmani, V. Barone, B. Mennucci, 
 G. A. Petersson, H. Nakatsuji, M. Caricato, X. Li, H. P. Hratchian, 
 A. F. Izmaylov, J. Bloino, G. Zheng, J. L. Sonnenberg, M. Hada, 
 M. Ehara, K. Toyota, R. Fukuda, J. Hasegawa, M. Ishida, T. Nakajima, 
 Y. Honda, O. Kitao, H. Nakai, T. Vreven, J. A. Montgomery, Jr., 
 J. E. Peralta, F. Ogliaro, M. Bearpark, J. J. Heyd, E. Brothers, 
 K. N. Kudin, V. N. Staroverov, T. Keith, R. Kobayashi, J. Normand, 
 K. Raghavachari, A. Rendell, J. C. Burant, S. S. Iyengar, J. Tomasi, 
 M. Cossi, N. Rega, J. M. Millam, M. Klene, J. E. Knox, J. B. Cross, 
 V. Bakken, C. Adamo, J. Jaramillo, R. Gomperts, R. E. Stratmann, 
 O. Yazyev, A. J. Austin, R. Cammi, C. Pomelli, J. W. Ochterski, 
 R. L. Martin, K. Morokuma, V. G. Zakrzewski, G. A. Voth, 
 P. Salvador, J. J. Dannenberg, S. Dapprich, A. D. Daniels, 
 O. Farkas, J. B. Foresman, J. V. Ortiz, J. Cioslowski, 
 and D. J. Fox, Gaussian, Inc., Wallingford CT, 2013.
 
 ******************************************
 Gaussian 09:  ES64L-G09RevD.01 24-Apr-2013
                11-Aug-2020 
 ******************************************
 %nprocshared=4
 Will use up to    4 processors via shared memory.
 %chk=freq_TS_claisen_PM6_toluene.chk
 ----------------------------------------------------------------------
 # freq pm6 scrf=(cpcm,solvent=toluene) geom=connectivity empiricaldisp
 ersion=gd3
 ----------------------------------------------------------------------
 1/10=4,30=1,38=1,57=2/1,3;
 2/12=2,17=6,18=5,40=1/2;
 3/5=2,16=1,25=1,41=3900000,70=2101,71=2,72=13,124=31,140=1/1,2,3;
 4/35=1/1;
 5/5=2,35=1,38=5,53=13,98=1/2;
 8/6=4,10=90,11=11/1;
 11/6=1,8=1,9=11,15=111,16=1/1,2,10;
 10/6=1/2;
 6/7=2,8=2,9=2,10=2,18=1,28=1/1;
 7/8=1,10=1,25=1/1,2,3,16;
 1/10=4,30=1/3;
 99//99;
 -------------------
 Title Card Required
 -------------------
 Symbolic Z-matrix:
 Charge =  0 Multiplicity = 1
 C                    -2.42518   2.64131   0.27567 
 C                    -2.69247   1.28224   0.25446 
 C                    -1.67535   0.36164  -0.09655 
 C                    -0.38781   0.84885  -0.41968 
 C                    -0.13803   2.2407   -0.40152 
 C                    -1.14211   3.12717  -0.05461 
 H                    -3.2098    3.3491    0.54679 
 H                    -3.69168   0.92698   0.50716 
 H                     0.86255   2.59254  -0.66628 
 H                    -0.95281   4.19959  -0.03583 
 C                     0.68186  -0.08808  -0.79569 
 C                    -1.88905  -1.07155  -0.15125 
 C                     0.42306  -1.49328  -0.79103 
 H                     1.0346   -2.13133  -1.43893 
 C                    -0.92174  -1.95036  -0.51592 
 H                    -1.11645  -3.02232  -0.59013 
 O                     1.87311   0.35607  -0.99011 
 Cl                   -3.45957  -1.67433   0.249 
 C                     3.05286  -0.0945    0.34672 
 C                     2.75102  -1.47802   0.4399 
 H                     3.43024  -2.17467  -0.05166 
 C                     4.29994   0.32845  -0.37378 
 H                     4.6709   -0.43544  -1.06981 
 H                     4.1114    1.23008  -0.98016 
 H                     5.11457   0.56807   0.3224 
 C                     2.57073   0.86925   1.39501 
 H                     1.54324   0.66743   1.72827 
 H                     3.21246   0.81977   2.28695 
 H                     2.58456   1.90924   1.03955 
 C                     1.50015  -1.93949   0.83615 
 H                     1.30239  -3.01022   0.86236 
 H                     0.88444  -1.37961   1.53994 
 

 GradGradGradGradGradGradGradGradGradGradGradGradGradGradGradGradGradGrad
 Berny optimization.
 Initialization pass.
 Trust Radius=3.00D-01 FncErr=1.00D-07 GrdErr=1.00D-07
 Number of steps in this run=      2 maximum allowed number of steps=      2.
 GradGradGradGradGradGradGradGradGradGradGradGradGradGradGradGradGradGrad

                          Input orientation:                          
 ---------------------------------------------------------------------
 Center     Atomic      Atomic             Coordinates (Angstroms)
 Number     Number       Type             X           Y           Z
 ---------------------------------------------------------------------
      1          6           0       -2.425184    2.641312    0.275667
      2          6           0       -2.692473    1.282238    0.254460
      3          6           0       -1.675353    0.361635   -0.096551
      4          6           0       -0.387807    0.848848   -0.419680
      5          6           0       -0.138026    2.240702   -0.401517
      6          6           0       -1.142110    3.127166   -0.054608
      7          1           0       -3.209798    3.349101    0.546788
      8          1           0       -3.691684    0.926975    0.507155
      9          1           0        0.862545    2.592542   -0.666282
     10          1           0       -0.952810    4.199593   -0.035834
     11          6           0        0.681862   -0.088079   -0.795688
     12          6           0       -1.889046   -1.071547   -0.151250
     13          6           0        0.423059   -1.493281   -0.791032
     14          1           0        1.034598   -2.131333   -1.438931
     15          6           0       -0.921743   -1.950364   -0.515920
     16          1           0       -1.116447   -3.022319   -0.590125
     17          8           0        1.873107    0.356068   -0.990108
     18         17           0       -3.459572   -1.674331    0.248998
     19          6           0        3.052860   -0.094500    0.346721
     20          6           0        2.751022   -1.478023    0.439902
     21          1           0        3.430244   -2.174674   -0.051664
     22          6           0        4.299938    0.328449   -0.373783
     23          1           0        4.670897   -0.435442   -1.069812
     24          1           0        4.111399    1.230076   -0.980163
     25          1           0        5.114569    0.568074    0.322403
     26          6           0        2.570732    0.869248    1.395010
     27          1           0        1.543243    0.667431    1.728272
     28          1           0        3.212455    0.819768    2.286946
     29          1           0        2.584556    1.909236    1.039551
     30          6           0        1.500147   -1.939492    0.836151
     31          1           0        1.302392   -3.010218    0.862356
     32          1           0        0.884437   -1.379608    1.539938
 ---------------------------------------------------------------------
                    Distance matrix (angstroms):
                    1          2          3          4          5
     1  C    0.000000
     2  C    1.385271   0.000000
     3  C    2.428522   1.416069   0.000000
     4  C    2.801310   2.440036   1.414059   0.000000
     5  C    2.418710   2.806093   2.446890   1.414206   0.000000
     6  C    1.411175   2.429590   2.816783   2.427547   1.383600
     7  H    1.090913   2.150582   3.419555   3.892166   3.400531
     8  H    2.143959   1.090179   2.179372   3.432307   3.896158
     9  H    3.420352   3.899079   3.426728   2.159783   1.093176
    10  H    2.166370   3.409055   3.905852   3.419658   2.152870
    11  C    4.272132   3.790345   2.499500   1.470852   2.500162
    12  C    3.775583   2.520000   1.450058   2.452283   3.754956
    13  C    5.132757   4.301523   2.885542   2.506187   3.795941
    14  H    6.139062   5.330206   3.919274   3.455950   4.643917
    15  C    4.895961   3.765460   2.467618   2.851305   4.265247
    16  H    5.876998   4.661158   3.465131   3.942829   5.356517
    17  O    5.029894   4.821956   3.659241   2.383265   2.818322
    18  Cl   4.437955   3.054467   2.729102   4.031042   5.175260
    19  C    6.123617   5.908703   4.770802   3.649036   4.024274
    20  C    6.617326   6.106150   4.823372   4.000682   4.783670
    21  H    7.588604   7.037870   5.701052   4.884121   5.687749
    22  C    7.141315   7.085070   5.981811   4.716765   4.832495
    23  H    7.850547   7.676154   6.469734   5.259521   5.543835
    24  H    6.804088   6.915178   5.917893   4.549981   4.406110
    25  H    7.819743   7.839933   6.805967   5.559286   5.559811
    26  C    5.417778   5.401180   4.528980   3.470802   3.527856
    27  H    4.664191   4.526743   3.712526   2.894057   3.136534
    28  H    6.256696   6.262033   5.457253   4.504282   4.524667
    29  H    5.120249   5.371827   4.672539   3.476884   3.098225
    30  C    6.058558   5.319396   4.030995   3.593928   4.657194
    31  H    6.795500   5.895224   4.599550   4.403723   5.589664
    32  H    5.359083   4.640276   3.501792   3.228734   4.233358
                    6          7          8          9         10
     6  C    0.000000
     7  H    2.164779   0.000000
     8  H    3.414198   2.469915   0.000000
     9  H    2.163009   4.316005   4.989195   0.000000
    10  H    1.089168   2.481286   4.301895   2.505113   0.000000
    11  C    3.770129   5.362972   4.675002   2.689818   4.651200
    12  C    4.265729   4.666237   2.770756   4.611080   5.354883
    13  C    4.933620   6.199684   4.947124   4.111284   5.905265
    14  H    5.857151   7.210626   5.956361   4.789737   6.782263
    15  C    5.103203   5.869316   4.122904   4.883061   6.168745
    16  H    6.172812   6.802182   4.840743   5.953896   7.245000
    17  O    4.200676   6.095590   5.790909   2.475463   4.865093
    18  Cl   5.340148   5.038446   2.624369   6.142039   6.392806
    19  C    5.304524   7.149776   6.823344   3.611627   5.884809
    20  C    6.050519   7.670979   6.877281   4.621633   6.795588
    21  H    7.001138   8.657967   7.788091   5.449512   7.735806
    22  C    6.127852   8.146651   8.062277   4.126420   6.533860
    23  H    6.893030   8.890530   8.618339   4.882117   7.360621
    24  H    5.661710   7.773144   7.949345   3.536932   5.946091
    25  H    6.770312   8.779496   8.815500   4.812035   7.080208
    26  C    4.580915   6.346942   6.325304   3.183798   5.055083
    27  H    4.054637   5.583785   5.381724   3.146949   4.671030
    28  H    5.456116   7.118357   7.130658   4.169695   5.845336
    29  H    4.070452   5.990873   6.374909   2.518352   4.349155
    30  C    5.783251   7.087773   5.939695   4.816967   6.668262
    31  H    6.669625   7.803870   6.369337   5.824184   7.607500
    32  H    5.192348   6.333230   5.227605   4.543772   6.081613
                   11         12         13         14         15
    11  C    0.000000
    12  C    2.827026   0.000000
    13  C    1.428843   2.435777   0.000000
    14  H    2.170961   3.365852   1.095839   0.000000
    15  C    2.473444   1.356827   1.446756   2.170707   0.000000
    16  H    3.447599   2.143603   2.179082   2.478169   1.092018
    17  O    1.286130   4.110421   2.358466   2.663025   3.654541
    18  Cl   4.556209   1.729190   4.023589   4.822398   2.664933
    19  C    2.631876   5.062117   3.188561   3.377961   4.470554
    20  C    2.782095   4.695201   2.633409   2.627344   3.824383
    21  H    3.530022   5.433383   3.170824   2.768665   4.382424
    22  C    3.666330   6.349254   4.303834   4.224632   5.699048
    23  H    4.013503   6.654415   4.386442   4.029264   5.820602
    24  H    3.678762   6.479962   4.588714   4.579983   5.971871
    25  H    4.618393   7.208559   5.243967   5.199544   6.594117
    26  C    3.046878   5.103648   3.869473   4.403909   4.878447
    27  H    2.771849   4.282202   3.502910   4.257109   4.238562
    28  H    4.090320   5.962146   4.754458   5.228214   5.711504
    29  H    3.313248   5.506014   4.427214   4.987127   5.441520
    30  C    2.600042   3.635233   2.001736   2.330137   2.773764
    31  H    3.416587   3.869253   2.409983   2.477917   2.823068
    32  H    2.676608   3.263009   2.378910   3.075923   2.795461
                   16         17         18         19         20
    16  H    0.000000
    17  O    4.528898   0.000000
    18  Cl   2.830448   5.839124   0.000000
    19  C    5.180051   1.839005   6.702029   0.000000
    20  C    4.289886   2.485871   6.216628   1.419128   0.000000
    21  H    4.656269   3.116089   6.914500   2.151338   1.090093
    22  C    6.372729   2.504022   8.037971   1.501071   2.514869
    23  H    6.357309   2.908689   8.329384   2.177350   2.655585
    24  H    6.750212   2.402902   8.201586   2.153051   3.346791
    25  H    7.249082   3.503528   8.862825   2.165696   3.128366
    26  C    5.716672   2.537483   6.644374   1.503385   2.540554
    27  H    5.105210   2.755966   5.718414   2.183613   2.778777
    28  H    6.463634   3.570428   7.408759   2.150774   2.984013
    29  H    6.377578   2.652924   7.070955   2.171239   3.443953
    30  C    3.170701   2.957011   5.001387   2.460580   1.390919
    31  H    2.821459   3.884485   4.983684   3.439684   2.150492
    32  H    3.352492   3.223534   4.541344   2.788786   2.168849
                   21         22         23         24         25
    21  H    0.000000
    22  C    2.669411   0.000000
    23  H    2.366595   1.097997   0.000000
    24  H    3.594218   1.102803   1.759268   0.000000
    25  H    3.240300   1.098052   1.772612   1.772364   0.000000
    26  C    3.478087   2.532044   3.491168   2.853997   2.777102
    27  H    3.847922   3.483233   4.339104   3.774601   3.839363
    28  H    3.805681   2.916075   3.869164   3.413276   2.746055
    29  H    4.310946   2.727441   3.781500   2.621403   2.951946
    30  C    2.137475   3.800832   3.993559   4.490411   4.428981
    31  H    2.461975   4.654033   4.659353   5.409759   5.256274
    32  H    3.105875   4.271467   4.694627   4.855373   4.813509
                   26         27         28         29         30
    26  C    0.000000
    27  H    1.098875   0.000000
    28  H    1.099912   1.766803   0.000000
    29  H    1.099144   1.760894   1.771212   0.000000
    30  C    3.057367   2.755682   3.556729   4.003751   0.000000
    31  H    4.116147   3.785885   4.510719   5.086882   1.089150
    32  H    2.814596   2.158672   3.288608   3.735945   1.089901
                   31         32
    31  H    0.000000
    32  H    1.814578   0.000000
 Stoichiometry    C15H15ClO
 Framework group  C1[X(C15H15ClO)]
 Deg. of freedom    90
 Full point group                 C1      NOp   1
 Largest Abelian subgroup         C1      NOp   1
 Largest concise Abelian subgroup C1      NOp   1
                         Standard orientation:                         
 ---------------------------------------------------------------------
 Center     Atomic      Atomic             Coordinates (Angstroms)
 Number     Number       Type             X           Y           Z
 ---------------------------------------------------------------------
      1          6           0       -2.425184    2.641312    0.275667
      2          6           0       -2.692473    1.282238    0.254460
      3          6           0       -1.675353    0.361635   -0.096551
      4          6           0       -0.387807    0.848848   -0.419680
      5          6           0       -0.138026    2.240702   -0.401517
      6          6           0       -1.142110    3.127166   -0.054608
      7          1           0       -3.209797    3.349102    0.546788
      8          1           0       -3.691684    0.926976    0.507155
      9          1           0        0.862545    2.592542   -0.666282
     10          1           0       -0.952809    4.199593   -0.035834
     11          6           0        0.681862   -0.088079   -0.795688
     12          6           0       -1.889046   -1.071547   -0.151250
     13          6           0        0.423059   -1.493281   -0.791032
     14          1           0        1.034598   -2.131333   -1.438931
     15          6           0       -0.921743   -1.950364   -0.515920
     16          1           0       -1.116447   -3.022319   -0.590125
     17          8           0        1.873107    0.356068   -0.990108
     18         17           0       -3.459572   -1.674330    0.248998
     19          6           0        3.052860   -0.094500    0.346721
     20          6           0        2.751022   -1.478023    0.439902
     21          1           0        3.430244   -2.174674   -0.051664
     22          6           0        4.299938    0.328448   -0.373783
     23          1           0        4.670897   -0.435443   -1.069812
     24          1           0        4.111399    1.230075   -0.980163
     25          1           0        5.114569    0.568073    0.322403
     26          6           0        2.570732    0.869248    1.395010
     27          1           0        1.543243    0.667431    1.728272
     28          1           0        3.212455    0.819768    2.286946
     29          1           0        2.584556    1.909236    1.039551
     30          6           0        1.500147   -1.939492    0.836151
     31          1           0        1.302392   -3.010218    0.862356
     32          1           0        0.884437   -1.379608    1.539938
 ---------------------------------------------------------------------
 Rotational constants (GHZ):      0.6926351      0.3372797      0.2485954
 Standard basis: VSTO-6G (5D, 7F)
 There are    89 symmetry adapted cartesian basis functions of A   symmetry.
 There are    88 symmetry adapted basis functions of A   symmetry.
    88 basis functions,   534 primitive gaussians,    89 cartesian basis functions
    44 alpha electrons       44 beta electrons
       nuclear repulsion energy       658.1004205816 Hartrees.
 Integral buffers will be    131072 words long.
 Regular integral format.
 Two-electron integral symmetry is turned off.
 Nuclear repulsion after empirical dispersion term =      658.0889776845 Hartrees.
 Force inversion solution in PCM.
 ------------------------------------------------------------------------------
 Polarizable Continuum Model (PCM)
 =================================
 Model                : C-PCM.
 Atomic radii         : UFF (Universal Force Field).
 Polarization charges : Total charges.
 Charge compensation  : None.
 Solution method      : Matrix inversion.
 Cavity type          : Scaled VdW (van der Waals Surface) (Alpha=1.100).
 Cavity algorithm     : GePol (No added spheres)
                        Default sphere list used, NSphG=   32.
                        Lebedev-Laikov grids with approx.  5.0 points / Ang**2.
                        Smoothing algorithm: Karplus/York (Gamma=1.0000).
                        Polarization charges: spherical gaussians, with
                                              point-specific exponents (IZeta= 3).
                        Self-potential: point-specific (ISelfS= 7).
                        Self-field    : sphere-specific E.n sum rule (ISelfD= 2).
 1st derivatives      : Analytical E(r).r(x)/FMM algorithm (CHGder, D1EAlg=3).
                        Cavity 1st derivative terms included.
 2nd derivatives      : Analytical E(r).r(xy)/FMM algorithm (CHGder, D2EAlg=3).
                        Cavity 2nd derivative terms included.
 Solvent              : Toluene, Eps=   2.374100 Eps(inf)=   2.238315
 ------------------------------------------------------------------------------
 Do NDO integrals.
 One-electron integrals computed using PRISM.
 PrsmSu:  requested number of processors reduced to:   2 ShMem   1 Linda.
 NBasis=    88 RedAO= F EigKep=  0.00D+00  NBF=    88
 NBsUse=    88 1.00D-04 EigRej=  0.00D+00 NBFU=    88
 Nonelectrostatic core Hamiltonian diagonalized for initial guess.
 Overlap will be assumed to be unity.
 Keep J ints in memory in canonical form, NReq=9735650.
 Requested convergence on RMS density matrix=1.00D-08 within 128 cycles.
 Requested convergence on MAX density matrix=1.00D-06.
 Requested convergence on             energy=1.00D-06.
 No special actions if energy rises.
 Inv3:  Mode=1 IEnd=    15526875.
 Iteration    1 A*A^-1 deviation from unit magnitude is 5.44D-15 for   2235.
 Iteration    1 A*A^-1 deviation from orthogonality  is 2.70D-15 for   2274   2205.
 Iteration    1 A^-1*A deviation from unit magnitude is 5.22D-15 for   2235.
 Iteration    1 A^-1*A deviation from orthogonality  is 2.06D-15 for   2274   2205.
 Error on total polarization charges = -0.00002
 SCF Done:  E(RPM6D3) =  0.182852046981E-01 A.U. after   23 cycles
            NFock= 22  Conv=0.70D-08     -V/T= 1.0003
 Range of M.O.s used for correlation:     1    88
 NBasis=    88 NAE=    44 NBE=    44 NFC=     0 NFV=     0
 NROrb=     88 NOA=    44 NOB=    44 NVA=    44 NVB=    44
 PrsmSu:  requested number of processors reduced to:   1 ShMem   1 Linda.
 Symmetrizing basis deriv contribution to polar:
 IMax=3 JMax=2 DiffMx= 0.00D+00
 G2DrvN: will do    33 centers at a time, making    1 passes.
 Calling FoFCou, ICntrl=  3107 FMM=F I1Cent=   0 AccDes= 0.00D+00.
 NEqPCM:  Using equilibrium solvation (IEInf=0, Eps=   2.3741, EpsInf=   2.2383)
 G2PCM: DoFxE=T DoFxN=T DoGrad=T DoDP/DQ/DG/TGxP=FFFF NFrqRd=   0 IEInf=0 SqF1=F DoCFld=F IF1Alg=4.
 CoulSu:  requested number of processors reduced to:   3 ShMem   1 Linda.
 End of G2Drv F.D. properties file   721 does not exist.
 End of G2Drv F.D. properties file   722 does not exist.
 End of G2Drv F.D. properties file   788 does not exist.
          IDoAtm=11111111111111111111111111111111
 NEqPCM:  Using equilibrium solvation (IEInf=0, Eps=   2.3741, EpsInf=   2.2383)
          Differentiating once with respect to electric field.
                with respect to dipole field.
          Differentiating once with respect to nuclear coordinates.
          Electric field/nuclear overlap derivatives assumed to be zero.
 Keep J ints in memory in canonical form, NReq=13282710.
          There are    99 degrees of freedom in the 1st order CPHF.  IDoFFX=5 NUNeed=    99.
 LinEq1:  Iter=  0 NonCon=    99 RMS=2.35D-01 Max=5.18D+00 NDo=    99
 AX will form    99 AO Fock derivatives at one time.
 LinEq1:  Iter=  1 NonCon=    99 RMS=4.40D-02 Max=5.87D-01 NDo=    99
 LinEq1:  Iter=  2 NonCon=    99 RMS=1.08D-02 Max=1.59D-01 NDo=    99
 LinEq1:  Iter=  3 NonCon=    99 RMS=2.60D-03 Max=4.14D-02 NDo=    99
 LinEq1:  Iter=  4 NonCon=    99 RMS=6.13D-04 Max=7.64D-03 NDo=    99
 LinEq1:  Iter=  5 NonCon=    99 RMS=1.56D-04 Max=2.07D-03 NDo=    99
 LinEq1:  Iter=  6 NonCon=    99 RMS=4.46D-05 Max=6.85D-04 NDo=    99
 LinEq1:  Iter=  7 NonCon=    92 RMS=1.02D-05 Max=1.25D-04 NDo=    99
 LinEq1:  Iter=  8 NonCon=    60 RMS=2.45D-06 Max=3.46D-05 NDo=    99
 LinEq1:  Iter=  9 NonCon=    22 RMS=5.54D-07 Max=8.95D-06 NDo=    99
 LinEq1:  Iter= 10 NonCon=     3 RMS=1.23D-07 Max=1.34D-06 NDo=    99
 LinEq1:  Iter= 11 NonCon=     3 RMS=2.74D-08 Max=2.55D-07 NDo=    99
 LinEq1:  Iter= 12 NonCon=     0 RMS=5.71D-09 Max=5.76D-08 NDo=    99
 Linear equations converged to 1.000D-08 1.000D-07 after    12 iterations.
 Isotropic polarizability for W=    0.000000      185.90 Bohr**3.
 End of Minotr F.D. properties file   721 does not exist.
 End of Minotr F.D. properties file   722 does not exist.
 End of Minotr F.D. properties file   788 does not exist.

 **********************************************************************

            Population analysis using the SCF density.

 **********************************************************************

 Orbital symmetries:
       Occupied  (A) (A) (A) (A) (A) (A) (A) (A) (A) (A) (A) (A)
                 (A) (A) (A) (A) (A) (A) (A) (A) (A) (A) (A) (A)
                 (A) (A) (A) (A) (A) (A) (A) (A) (A) (A) (A) (A)
                 (A) (A) (A) (A) (A) (A) (A) (A)
       Virtual   (A) (A) (A) (A) (A) (A) (A) (A) (A) (A) (A) (A)
                 (A) (A) (A) (A) (A) (A) (A) (A) (A) (A) (A) (A)
                 (A) (A) (A) (A) (A) (A) (A) (A) (A) (A) (A) (A)
                 (A) (A) (A) (A) (A) (A) (A) (A)
 The electronic state is 1-A.
 Alpha  occ. eigenvalues --   -1.13263  -1.10868  -1.07501  -1.06105  -1.00168
 Alpha  occ. eigenvalues --   -0.97800  -0.96008  -0.94372  -0.91183  -0.89021
 Alpha  occ. eigenvalues --   -0.81978  -0.80749  -0.79845  -0.75551  -0.69015
 Alpha  occ. eigenvalues --   -0.65917  -0.64959  -0.62604  -0.60180  -0.59689
 Alpha  occ. eigenvalues --   -0.56934  -0.56636  -0.56000  -0.54181  -0.53922
 Alpha  occ. eigenvalues --   -0.52718  -0.51943  -0.50425  -0.50136  -0.49298
 Alpha  occ. eigenvalues --   -0.48630  -0.48161  -0.46951  -0.46266  -0.46251
 Alpha  occ. eigenvalues --   -0.45422  -0.44409  -0.41995  -0.40822  -0.39095
 Alpha  occ. eigenvalues --   -0.38318  -0.37205  -0.34009  -0.31144
 Alpha virt. eigenvalues --   -0.02854  -0.02157   0.01071   0.02422   0.02987
 Alpha virt. eigenvalues --    0.04131   0.07739   0.09851   0.12427   0.13023
 Alpha virt. eigenvalues --    0.13955   0.14118   0.14579   0.15209   0.15536
 Alpha virt. eigenvalues --    0.16276   0.16361   0.16900   0.17256   0.17835
 Alpha virt. eigenvalues --    0.18529   0.18882   0.19184   0.19586   0.19876
 Alpha virt. eigenvalues --    0.20028   0.20335   0.20465   0.20719   0.21002
 Alpha virt. eigenvalues --    0.21147   0.21204   0.21814   0.22098   0.22187
 Alpha virt. eigenvalues --    0.22469   0.23161   0.24070   0.24381   3.24455
 Alpha virt. eigenvalues --    3.24488   3.24600   3.25739   3.25791
          Condensed to atoms (all electrons):
               1          2          3          4          5          6
     1  C    4.089360   0.000000   0.000000   0.000000   0.000000   0.000000
     2  C    0.000000   4.203629   0.000000   0.000000   0.000000   0.000000
     3  C    0.000000   0.000000   3.919805   0.000000   0.000000   0.000000
     4  C    0.000000   0.000000   0.000000   4.173541   0.000000   0.000000
     5  C    0.000000   0.000000   0.000000   0.000000   4.073968   0.000000
     6  C    0.000000   0.000000   0.000000   0.000000   0.000000   4.194365
     7  H    0.000000   0.000000   0.000000   0.000000   0.000000   0.000000
     8  H    0.000000   0.000000   0.000000   0.000000   0.000000   0.000000
     9  H    0.000000   0.000000   0.000000   0.000000   0.000000   0.000000
    10  H    0.000000   0.000000   0.000000   0.000000   0.000000   0.000000
    11  C    0.000000   0.000000   0.000000   0.000000   0.000000   0.000000
    12  C    0.000000   0.000000   0.000000   0.000000   0.000000   0.000000
    13  C    0.000000   0.000000   0.000000   0.000000   0.000000   0.000000
    14  H    0.000000   0.000000   0.000000   0.000000   0.000000   0.000000
    15  C    0.000000   0.000000   0.000000   0.000000   0.000000   0.000000
    16  H    0.000000   0.000000   0.000000   0.000000   0.000000   0.000000
    17  O    0.000000   0.000000   0.000000   0.000000   0.000000   0.000000
    18  Cl   0.000000   0.000000   0.000000   0.000000   0.000000   0.000000
    19  C    0.000000   0.000000   0.000000   0.000000   0.000000   0.000000
    20  C    0.000000   0.000000   0.000000   0.000000   0.000000   0.000000
    21  H    0.000000   0.000000   0.000000   0.000000   0.000000   0.000000
    22  C    0.000000   0.000000   0.000000   0.000000   0.000000   0.000000
    23  H    0.000000   0.000000   0.000000   0.000000   0.000000   0.000000
    24  H    0.000000   0.000000   0.000000   0.000000   0.000000   0.000000
    25  H    0.000000   0.000000   0.000000   0.000000   0.000000   0.000000
    26  C    0.000000   0.000000   0.000000   0.000000   0.000000   0.000000
    27  H    0.000000   0.000000   0.000000   0.000000   0.000000   0.000000
    28  H    0.000000   0.000000   0.000000   0.000000   0.000000   0.000000
    29  H    0.000000   0.000000   0.000000   0.000000   0.000000   0.000000
    30  C    0.000000   0.000000   0.000000   0.000000   0.000000   0.000000
    31  H    0.000000   0.000000   0.000000   0.000000   0.000000   0.000000
    32  H    0.000000   0.000000   0.000000   0.000000   0.000000   0.000000
               7          8          9         10         11         12
     1  C    0.000000   0.000000   0.000000   0.000000   0.000000   0.000000
     2  C    0.000000   0.000000   0.000000   0.000000   0.000000   0.000000
     3  C    0.000000   0.000000   0.000000   0.000000   0.000000   0.000000
     4  C    0.000000   0.000000   0.000000   0.000000   0.000000   0.000000
     5  C    0.000000   0.000000   0.000000   0.000000   0.000000   0.000000
     6  C    0.000000   0.000000   0.000000   0.000000   0.000000   0.000000
     7  H    0.848760   0.000000   0.000000   0.000000   0.000000   0.000000
     8  H    0.000000   0.829654   0.000000   0.000000   0.000000   0.000000
     9  H    0.000000   0.000000   0.835862   0.000000   0.000000   0.000000
    10  H    0.000000   0.000000   0.000000   0.840838   0.000000   0.000000
    11  C    0.000000   0.000000   0.000000   0.000000   3.567248   0.000000
    12  C    0.000000   0.000000   0.000000   0.000000   0.000000   4.066596
    13  C    0.000000   0.000000   0.000000   0.000000   0.000000   0.000000
    14  H    0.000000   0.000000   0.000000   0.000000   0.000000   0.000000
    15  C    0.000000   0.000000   0.000000   0.000000   0.000000   0.000000
    16  H    0.000000   0.000000   0.000000   0.000000   0.000000   0.000000
    17  O    0.000000   0.000000   0.000000   0.000000   0.000000   0.000000
    18  Cl   0.000000   0.000000   0.000000   0.000000   0.000000   0.000000
    19  C    0.000000   0.000000   0.000000   0.000000   0.000000   0.000000
    20  C    0.000000   0.000000   0.000000   0.000000   0.000000   0.000000
    21  H    0.000000   0.000000   0.000000   0.000000   0.000000   0.000000
    22  C    0.000000   0.000000   0.000000   0.000000   0.000000   0.000000
    23  H    0.000000   0.000000   0.000000   0.000000   0.000000   0.000000
    24  H    0.000000   0.000000   0.000000   0.000000   0.000000   0.000000
    25  H    0.000000   0.000000   0.000000   0.000000   0.000000   0.000000
    26  C    0.000000   0.000000   0.000000   0.000000   0.000000   0.000000
    27  H    0.000000   0.000000   0.000000   0.000000   0.000000   0.000000
    28  H    0.000000   0.000000   0.000000   0.000000   0.000000   0.000000
    29  H    0.000000   0.000000   0.000000   0.000000   0.000000   0.000000
    30  C    0.000000   0.000000   0.000000   0.000000   0.000000   0.000000
    31  H    0.000000   0.000000   0.000000   0.000000   0.000000   0.000000
    32  H    0.000000   0.000000   0.000000   0.000000   0.000000   0.000000
              13         14         15         16         17         18
     1  C    0.000000   0.000000   0.000000   0.000000   0.000000   0.000000
     2  C    0.000000   0.000000   0.000000   0.000000   0.000000   0.000000
     3  C    0.000000   0.000000   0.000000   0.000000   0.000000   0.000000
     4  C    0.000000   0.000000   0.000000   0.000000   0.000000   0.000000
     5  C    0.000000   0.000000   0.000000   0.000000   0.000000   0.000000
     6  C    0.000000   0.000000   0.000000   0.000000   0.000000   0.000000
     7  H    0.000000   0.000000   0.000000   0.000000   0.000000   0.000000
     8  H    0.000000   0.000000   0.000000   0.000000   0.000000   0.000000
     9  H    0.000000   0.000000   0.000000   0.000000   0.000000   0.000000
    10  H    0.000000   0.000000   0.000000   0.000000   0.000000   0.000000
    11  C    0.000000   0.000000   0.000000   0.000000   0.000000   0.000000
    12  C    0.000000   0.000000   0.000000   0.000000   0.000000   0.000000
    13  C    4.359857   0.000000   0.000000   0.000000   0.000000   0.000000
    14  H    0.000000   0.809224   0.000000   0.000000   0.000000   0.000000
    15  C    0.000000   0.000000   4.088105   0.000000   0.000000   0.000000
    16  H    0.000000   0.000000   0.000000   0.834384   0.000000   0.000000
    17  O    0.000000   0.000000   0.000000   0.000000   6.572876   0.000000
    18  Cl   0.000000   0.000000   0.000000   0.000000   0.000000   7.101192
    19  C    0.000000   0.000000   0.000000   0.000000   0.000000   0.000000
    20  C    0.000000   0.000000   0.000000   0.000000   0.000000   0.000000
    21  H    0.000000   0.000000   0.000000   0.000000   0.000000   0.000000
    22  C    0.000000   0.000000   0.000000   0.000000   0.000000   0.000000
    23  H    0.000000   0.000000   0.000000   0.000000   0.000000   0.000000
    24  H    0.000000   0.000000   0.000000   0.000000   0.000000   0.000000
    25  H    0.000000   0.000000   0.000000   0.000000   0.000000   0.000000
    26  C    0.000000   0.000000   0.000000   0.000000   0.000000   0.000000
    27  H    0.000000   0.000000   0.000000   0.000000   0.000000   0.000000
    28  H    0.000000   0.000000   0.000000   0.000000   0.000000   0.000000
    29  H    0.000000   0.000000   0.000000   0.000000   0.000000   0.000000
    30  C    0.000000   0.000000   0.000000   0.000000   0.000000   0.000000
    31  H    0.000000   0.000000   0.000000   0.000000   0.000000   0.000000
    32  H    0.000000   0.000000   0.000000   0.000000   0.000000   0.000000
              19         20         21         22         23         24
     1  C    0.000000   0.000000   0.000000   0.000000   0.000000   0.000000
     2  C    0.000000   0.000000   0.000000   0.000000   0.000000   0.000000
     3  C    0.000000   0.000000   0.000000   0.000000   0.000000   0.000000
     4  C    0.000000   0.000000   0.000000   0.000000   0.000000   0.000000
     5  C    0.000000   0.000000   0.000000   0.000000   0.000000   0.000000
     6  C    0.000000   0.000000   0.000000   0.000000   0.000000   0.000000
     7  H    0.000000   0.000000   0.000000   0.000000   0.000000   0.000000
     8  H    0.000000   0.000000   0.000000   0.000000   0.000000   0.000000
     9  H    0.000000   0.000000   0.000000   0.000000   0.000000   0.000000
    10  H    0.000000   0.000000   0.000000   0.000000   0.000000   0.000000
    11  C    0.000000   0.000000   0.000000   0.000000   0.000000   0.000000
    12  C    0.000000   0.000000   0.000000   0.000000   0.000000   0.000000
    13  C    0.000000   0.000000   0.000000   0.000000   0.000000   0.000000
    14  H    0.000000   0.000000   0.000000   0.000000   0.000000   0.000000
    15  C    0.000000   0.000000   0.000000   0.000000   0.000000   0.000000
    16  H    0.000000   0.000000   0.000000   0.000000   0.000000   0.000000
    17  O    0.000000   0.000000   0.000000   0.000000   0.000000   0.000000
    18  Cl   0.000000   0.000000   0.000000   0.000000   0.000000   0.000000
    19  C    3.492932   0.000000   0.000000   0.000000   0.000000   0.000000
    20  C    0.000000   4.464440   0.000000   0.000000   0.000000   0.000000
    21  H    0.000000   0.000000   0.823912   0.000000   0.000000   0.000000
    22  C    0.000000   0.000000   0.000000   4.567719   0.000000   0.000000
    23  H    0.000000   0.000000   0.000000   0.000000   0.820821   0.000000
    24  H    0.000000   0.000000   0.000000   0.000000   0.000000   0.806648
    25  H    0.000000   0.000000   0.000000   0.000000   0.000000   0.000000
    26  C    0.000000   0.000000   0.000000   0.000000   0.000000   0.000000
    27  H    0.000000   0.000000   0.000000   0.000000   0.000000   0.000000
    28  H    0.000000   0.000000   0.000000   0.000000   0.000000   0.000000
    29  H    0.000000   0.000000   0.000000   0.000000   0.000000   0.000000
    30  C    0.000000   0.000000   0.000000   0.000000   0.000000   0.000000
    31  H    0.000000   0.000000   0.000000   0.000000   0.000000   0.000000
    32  H    0.000000   0.000000   0.000000   0.000000   0.000000   0.000000
              25         26         27         28         29         30
     1  C    0.000000   0.000000   0.000000   0.000000   0.000000   0.000000
     2  C    0.000000   0.000000   0.000000   0.000000   0.000000   0.000000
     3  C    0.000000   0.000000   0.000000   0.000000   0.000000   0.000000
     4  C    0.000000   0.000000   0.000000   0.000000   0.000000   0.000000
     5  C    0.000000   0.000000   0.000000   0.000000   0.000000   0.000000
     6  C    0.000000   0.000000   0.000000   0.000000   0.000000   0.000000
     7  H    0.000000   0.000000   0.000000   0.000000   0.000000   0.000000
     8  H    0.000000   0.000000   0.000000   0.000000   0.000000   0.000000
     9  H    0.000000   0.000000   0.000000   0.000000   0.000000   0.000000
    10  H    0.000000   0.000000   0.000000   0.000000   0.000000   0.000000
    11  C    0.000000   0.000000   0.000000   0.000000   0.000000   0.000000
    12  C    0.000000   0.000000   0.000000   0.000000   0.000000   0.000000
    13  C    0.000000   0.000000   0.000000   0.000000   0.000000   0.000000
    14  H    0.000000   0.000000   0.000000   0.000000   0.000000   0.000000
    15  C    0.000000   0.000000   0.000000   0.000000   0.000000   0.000000
    16  H    0.000000   0.000000   0.000000   0.000000   0.000000   0.000000
    17  O    0.000000   0.000000   0.000000   0.000000   0.000000   0.000000
    18  Cl   0.000000   0.000000   0.000000   0.000000   0.000000   0.000000
    19  C    0.000000   0.000000   0.000000   0.000000   0.000000   0.000000
    20  C    0.000000   0.000000   0.000000   0.000000   0.000000   0.000000
    21  H    0.000000   0.000000   0.000000   0.000000   0.000000   0.000000
    22  C    0.000000   0.000000   0.000000   0.000000   0.000000   0.000000
    23  H    0.000000   0.000000   0.000000   0.000000   0.000000   0.000000
    24  H    0.000000   0.000000   0.000000   0.000000   0.000000   0.000000
    25  H    0.820321   0.000000   0.000000   0.000000   0.000000   0.000000
    26  C    0.000000   4.572797   0.000000   0.000000   0.000000   0.000000
    27  H    0.000000   0.000000   0.817996   0.000000   0.000000   0.000000
    28  H    0.000000   0.000000   0.000000   0.818347   0.000000   0.000000
    29  H    0.000000   0.000000   0.000000   0.000000   0.814824   0.000000
    30  C    0.000000   0.000000   0.000000   0.000000   0.000000   4.045466
    31  H    0.000000   0.000000   0.000000   0.000000   0.000000   0.000000
    32  H    0.000000   0.000000   0.000000   0.000000   0.000000   0.000000
              31         32
     1  C    0.000000   0.000000
     2  C    0.000000   0.000000
     3  C    0.000000   0.000000
     4  C    0.000000   0.000000
     5  C    0.000000   0.000000
     6  C    0.000000   0.000000
     7  H    0.000000   0.000000
     8  H    0.000000   0.000000
     9  H    0.000000   0.000000
    10  H    0.000000   0.000000
    11  C    0.000000   0.000000
    12  C    0.000000   0.000000
    13  C    0.000000   0.000000
    14  H    0.000000   0.000000
    15  C    0.000000   0.000000
    16  H    0.000000   0.000000
    17  O    0.000000   0.000000
    18  Cl   0.000000   0.000000
    19  C    0.000000   0.000000
    20  C    0.000000   0.000000
    21  H    0.000000   0.000000
    22  C    0.000000   0.000000
    23  H    0.000000   0.000000
    24  H    0.000000   0.000000
    25  H    0.000000   0.000000
    26  C    0.000000   0.000000
    27  H    0.000000   0.000000
    28  H    0.000000   0.000000
    29  H    0.000000   0.000000
    30  C    0.000000   0.000000
    31  H    0.861648   0.000000
    32  H    0.000000   0.862866
 Mulliken charges:
               1
     1  C   -0.089360
     2  C   -0.203629
     3  C    0.080195
     4  C   -0.173541
     5  C   -0.073968
     6  C   -0.194365
     7  H    0.151240
     8  H    0.170346
     9  H    0.164138
    10  H    0.159162
    11  C    0.432752
    12  C   -0.066596
    13  C   -0.359857
    14  H    0.190776
    15  C   -0.088105
    16  H    0.165616
    17  O   -0.572876
    18  Cl  -0.101192
    19  C    0.507068
    20  C   -0.464440
    21  H    0.176088
    22  C   -0.567719
    23  H    0.179179
    24  H    0.193352
    25  H    0.179679
    26  C   -0.572797
    27  H    0.182004
    28  H    0.181653
    29  H    0.185176
    30  C   -0.045466
    31  H    0.138352
    32  H    0.137134
 Sum of Mulliken charges =   0.00000
 Mulliken charges with hydrogens summed into heavy atoms:
               1
     1  C    0.061880
     2  C   -0.033283
     3  C    0.080195
     4  C   -0.173541
     5  C    0.090169
     6  C   -0.035203
    11  C    0.432752
    12  C   -0.066596
    13  C   -0.169081
    15  C    0.077511
    17  O   -0.572876
    18  Cl  -0.101192
    19  C    0.507068
    20  C   -0.288351
    22  C   -0.015509
    26  C   -0.023964
    30  C    0.230020
 APT charges:
               1
     1  C   -0.027834
     2  C   -0.458570
     3  C    0.222146
     4  C   -0.244926
     5  C   -0.145651
     6  C   -0.289563
     7  H    0.218364
     8  H    0.234597
     9  H    0.200034
    10  H    0.229420
    11  C    0.708214
    12  C    0.231755
    13  C   -1.133271
    14  H    0.262514
    15  C    0.166007
    16  H    0.219803
    17  O   -0.678336
    18  Cl  -0.498769
    19  C    1.096125
    20  C   -1.157795
    21  H    0.261334
    22  C   -0.960071
    23  H    0.235966
    24  H    0.254130
    25  H    0.242070
    26  C   -0.826146
    27  H    0.194614
    28  H    0.235733
    29  H    0.234842
    30  C    0.767918
    31  H    0.143143
    32  H    0.062008
 Sum of APT charges =  -0.00020
 APT charges with hydrogens summed into heavy atoms:
               1
     1  C    0.190530
     2  C   -0.223973
     3  C    0.222146
     4  C   -0.244926
     5  C    0.054383
     6  C   -0.060143
    11  C    0.708214
    12  C    0.231755
    13  C   -0.870757
    15  C    0.385809
    17  O   -0.678336
    18  Cl  -0.498769
    19  C    1.096125
    20  C   -0.896462
    22  C   -0.227905
    26  C   -0.160957
    30  C    0.973068
 Charge=              0.0000 electrons
 Dipole moment (field-independent basis, Debye):
    X=              2.2883    Y=              0.6119    Z=              2.1189  Tot=              3.1782
 N-N= 6.580889776845D+02 E-N=-1.203247334307D+03  KE=-5.674336933613D+01
  Exact polarizability: 269.752 -15.810 214.676 -14.265   2.425  73.283
 Approx polarizability: 170.940  -1.351 150.561 -16.254   0.207  50.969
 PrsmSu:  requested number of processors reduced to:   1 ShMem   1 Linda.
 D2PCM: C-PCM CHGder 2nd derivatives, FixD1E=F FixD2E=F DoIter=F DoCFld=F I1PDM=0
 Calling FoFJK, ICntrl=    100127 FMM=F ISym2X=0 I1Cent= 0 IOpClX= 0 NMat=1 NMatS=1 NMatT=0.
 CoulSu:  requested number of processors reduced to:   2 ShMem   1 Linda.
 Full mass-weighted force constant matrix:
 Low frequencies --- -761.4134   -8.6461   -0.7664   -0.0318    0.1079    0.9999
 Low frequencies ---    5.5450   45.3466   54.0642
 ******    1 imaginary frequencies (negative Signs) ****** 
 Diagonal vibrational polarizability:
      154.5118212      27.3798455      75.8577750
 Harmonic frequencies (cm**-1), IR intensities (KM/Mole), Raman scattering
 activities (A**4/AMU), depolarization ratios for plane and unpolarized
 incident light, reduced masses (AMU), force constants (mDyne/A),
 and normal coordinates:
                      1                      2                      3
                      A                      A                      A
 Frequencies --   -761.4134                45.3100                54.0532
 Red. masses --      9.9428                 4.3507                 1.4923
 Frc consts  --      3.3962                 0.0053                 0.0026
 IR Inten    --    502.1882                 0.1491                 1.2310
  Atom  AN      X      Y      Z        X      Y      Z        X      Y      Z
     1   6     0.01   0.02   0.00     0.02   0.02  -0.05     0.05  -0.01   0.08
     2   6     0.01  -0.02   0.00     0.03   0.02  -0.01     0.04  -0.01   0.06
     3   6    -0.01   0.03   0.01     0.02   0.02  -0.01     0.02  -0.01   0.01
     4   6    -0.03   0.03   0.00     0.01   0.01  -0.05     0.01  -0.02  -0.03
     5   6     0.00  -0.02  -0.01     0.01   0.01  -0.09     0.02  -0.02  -0.02
     6   6    -0.02   0.01   0.01     0.01   0.02  -0.09     0.04  -0.02   0.03
     7   1    -0.01  -0.01   0.00     0.03   0.03  -0.05     0.07  -0.01   0.13
     8   1     0.00   0.00   0.01     0.04   0.02   0.02     0.04   0.00   0.10
     9   1     0.00   0.00   0.00     0.00   0.01  -0.12     0.01  -0.02  -0.06
    10   1     0.00   0.01   0.01     0.01   0.02  -0.13     0.05  -0.02   0.04
    11   6     0.09   0.08  -0.05     0.01   0.01  -0.06     0.00  -0.02  -0.04
    12   6     0.01  -0.04  -0.01     0.02   0.01   0.01     0.00  -0.01  -0.01
    13   6     0.24  -0.16   0.39    -0.01   0.01  -0.12    -0.01  -0.02  -0.02
    14   1    -0.14   0.08  -0.26    -0.03   0.03  -0.15     0.00  -0.04   0.01
    15   6    -0.01  -0.02   0.06     0.00   0.02  -0.07    -0.01  -0.01  -0.02
    16   1    -0.01  -0.02   0.00    -0.02   0.02  -0.09    -0.02  -0.01  -0.02
    17   8    -0.21   0.04  -0.18     0.02   0.00  -0.02     0.00  -0.03  -0.05
    18  17     0.00   0.00   0.00     0.06   0.01   0.16    -0.01   0.01  -0.02
    19   6     0.24  -0.17   0.27    -0.06  -0.01   0.06    -0.01   0.02   0.02
    20   6     0.07   0.11  -0.04     0.00  -0.03  -0.08    -0.02   0.03   0.04
    21   1    -0.10  -0.01  -0.08     0.03   0.04  -0.13    -0.01   0.02   0.06
    22   6     0.04   0.00   0.03    -0.03   0.11   0.19    -0.01   0.02   0.02
    23   1     0.00   0.02   0.00     0.09   0.17   0.19     0.29  -0.17   0.40
    24   1    -0.12  -0.03   0.06    -0.05   0.13   0.21    -0.17  -0.28  -0.39
    25   1     0.10   0.06  -0.07    -0.11   0.15   0.27    -0.17   0.55   0.03
    26   6     0.00   0.00   0.00    -0.19  -0.12   0.10    -0.06   0.05  -0.03
    27   1     0.00  -0.02  -0.04    -0.21  -0.20  -0.01    -0.09   0.08  -0.10
    28   1    -0.05   0.09   0.04    -0.27  -0.17   0.15    -0.12   0.05   0.01
    29   1     0.01  -0.04  -0.09    -0.21  -0.09   0.19    -0.01   0.04  -0.05
    30   6    -0.34   0.10  -0.37     0.01  -0.11  -0.15    -0.02   0.03   0.03
    31   1     0.00   0.03  -0.06     0.04  -0.12  -0.25    -0.02   0.03   0.04
    32   1     0.09  -0.07   0.16    -0.03  -0.20  -0.11    -0.04   0.04   0.00
                      4                      5                      6
                      A                      A                      A
 Frequencies --     60.7389                85.0310               107.0303
 Red. masses --      1.8683                 4.4492                 3.9250
 Frc consts  --      0.0041                 0.0190                 0.0265
 IR Inten    --      1.1527                 0.3361                 0.5844
  Atom  AN      X      Y      Z        X      Y      Z        X      Y      Z
     1   6    -0.07   0.01  -0.09     0.05   0.02  -0.03    -0.02   0.00   0.08
     2   6    -0.05   0.01  -0.08     0.01   0.03  -0.01     0.05  -0.02   0.25
     3   6    -0.02   0.01  -0.01    -0.01  -0.01   0.03     0.02   0.01   0.12
     4   6    -0.01   0.02   0.04     0.01  -0.04   0.05    -0.02   0.03  -0.02
     5   6    -0.02   0.02   0.05     0.05  -0.05   0.02    -0.10   0.05  -0.22
     6   6    -0.05   0.02  -0.02     0.07  -0.02  -0.01    -0.11   0.03  -0.22
     7   1    -0.09   0.01  -0.16     0.06   0.05  -0.06     0.00  -0.02   0.16
     8   1    -0.06   0.01  -0.14     0.00   0.06  -0.01     0.11  -0.04   0.47
     9   1    -0.01   0.03   0.11     0.06  -0.09   0.03    -0.15   0.07  -0.38
    10   1    -0.06   0.02  -0.01     0.09  -0.02  -0.03    -0.17   0.05  -0.41
    11   6     0.00   0.03   0.05    -0.01  -0.07   0.06     0.00   0.03   0.03
    12   6    -0.01   0.01   0.01    -0.03  -0.01   0.07     0.02   0.01   0.06
    13   6     0.00   0.03   0.01    -0.01  -0.07   0.13     0.01   0.03   0.02
    14   1    -0.01   0.05  -0.01    -0.07  -0.09   0.08     0.01   0.05   0.01
    15   6     0.00   0.02   0.02    -0.02  -0.04   0.18     0.01   0.02   0.01
    16   1     0.01   0.02   0.02    -0.02  -0.04   0.26     0.01   0.03  -0.06
    17   8     0.00   0.04   0.06    -0.02  -0.07  -0.02     0.01   0.04   0.07
    18  17     0.00   0.00   0.02    -0.10   0.06  -0.10    -0.01   0.00  -0.09
    19   6     0.05  -0.04   0.00     0.00   0.05  -0.05     0.03  -0.04   0.02
    20   6     0.03  -0.04  -0.05     0.13   0.02  -0.10     0.02  -0.04  -0.01
    21   1     0.01  -0.03  -0.10     0.15   0.10  -0.18     0.00  -0.04  -0.04
    22   6     0.01  -0.02  -0.05    -0.06   0.23  -0.03     0.02  -0.04   0.00
    23   1     0.28  -0.19   0.28    -0.01   0.33  -0.12     0.04  -0.05   0.03
    24   1    -0.18  -0.30  -0.42    -0.14   0.28   0.06    -0.01  -0.06  -0.03
    25   1    -0.11   0.49  -0.08    -0.06   0.22  -0.03     0.01   0.01  -0.01
    26   6     0.09  -0.08   0.05    -0.08  -0.05   0.02     0.06  -0.07   0.05
    27   1     0.08  -0.05   0.04    -0.06  -0.17   0.02     0.11  -0.15   0.16
    28   1     0.09  -0.16   0.05    -0.07  -0.06   0.01     0.16   0.01  -0.01
    29   1     0.13  -0.06   0.11    -0.18  -0.03   0.09    -0.07  -0.08   0.03
    30   6     0.04  -0.04  -0.02     0.19  -0.10  -0.04     0.02  -0.04   0.00
    31   1     0.03  -0.04  -0.06     0.28  -0.12  -0.08     0.00  -0.03  -0.02
    32   1     0.06  -0.05   0.01     0.21  -0.19   0.06     0.04  -0.04   0.02
                      7                      8                      9
                      A                      A                      A
 Frequencies --    121.3027               183.1767               189.4255
 Red. masses --      1.0336                 3.3342                 5.5909
 Frc consts  --      0.0090                 0.0659                 0.1182
 IR Inten    --      0.4916                 3.8568                62.2050
  Atom  AN      X      Y      Z        X      Y      Z        X      Y      Z
     1   6     0.00   0.00   0.00    -0.10  -0.01  -0.07     0.04   0.05  -0.17
     2   6     0.00   0.00  -0.02    -0.02  -0.03   0.04     0.07   0.04   0.07
     3   6     0.00   0.00  -0.01     0.03   0.00   0.11     0.08   0.01   0.19
     4   6     0.00   0.00   0.00     0.03   0.01   0.12     0.08   0.01   0.19
     5   6     0.00   0.00   0.01    -0.03   0.03   0.11     0.11   0.00   0.14
     6   6     0.01   0.00   0.02    -0.09   0.01  -0.02     0.06   0.04  -0.11
     7   1     0.00   0.00  -0.01    -0.15  -0.03  -0.19    -0.01   0.08  -0.38
     8   1    -0.01   0.00  -0.03    -0.01  -0.05   0.04     0.08   0.05   0.10
     9   1     0.01   0.00   0.02    -0.03   0.06   0.16     0.15  -0.03   0.22
    10   1     0.01   0.00   0.03    -0.14   0.02  -0.09     0.03   0.05  -0.26
    11   6     0.00   0.00   0.00     0.01   0.02   0.01     0.02   0.01   0.08
    12   6     0.00   0.00  -0.01     0.01   0.01   0.07     0.07   0.00   0.10
    13   6     0.00   0.00  -0.01    -0.02   0.03  -0.03     0.05   0.00   0.03
    14   1     0.00   0.00  -0.01    -0.03   0.04  -0.04     0.00   0.06  -0.09
    15   6     0.00   0.00  -0.01     0.00   0.01   0.01     0.03   0.01  -0.01
    16   1     0.00   0.00  -0.01    -0.01   0.02  -0.02     0.00   0.02  -0.13
    17   8     0.00   0.00   0.01     0.02  -0.04  -0.09     0.03   0.02   0.05
    18  17     0.00   0.00   0.01    -0.02   0.04  -0.02     0.08  -0.08  -0.06
    19   6     0.00  -0.01   0.01     0.04  -0.02  -0.03    -0.18   0.02  -0.09
    20   6     0.00  -0.01   0.00     0.04  -0.02  -0.04    -0.13   0.00   0.01
    21   1     0.01  -0.01   0.01     0.06  -0.01  -0.04    -0.09   0.00   0.10
    22   6     0.00   0.00   0.01     0.17  -0.10   0.14    -0.18  -0.01  -0.13
    23   1     0.04  -0.02   0.05     0.24  -0.13   0.22    -0.20  -0.05  -0.09
    24   1    -0.02  -0.04  -0.03     0.33  -0.09   0.10    -0.20  -0.05  -0.18
    25   1    -0.02   0.06   0.01     0.07  -0.14   0.28    -0.17   0.03  -0.16
    26   6    -0.02   0.01  -0.01    -0.09   0.07  -0.18    -0.11   0.02  -0.03
    27   1     0.18  -0.33   0.38    -0.14   0.11  -0.30    -0.10   0.02   0.02
    28   1     0.31   0.45  -0.23    -0.22   0.16  -0.08    -0.07  -0.02  -0.07
    29   1    -0.54  -0.06  -0.24    -0.04   0.04  -0.28    -0.11   0.02  -0.01
    30   6     0.00  -0.01   0.00     0.07  -0.05  -0.03    -0.18   0.00  -0.08
    31   1     0.00  -0.01  -0.01     0.08  -0.06  -0.09    -0.12  -0.02  -0.04
    32   1     0.00  -0.01  -0.01     0.05  -0.09  -0.02    -0.16  -0.05  -0.03
                     10                     11                     12
                      A                      A                      A
 Frequencies --    203.5483               222.2376               240.4580
 Red. masses --      4.5886                 8.3083                 3.7567
 Frc consts  --      0.1120                 0.2418                 0.1280
 IR Inten    --      5.4756                26.3312                67.7775
  Atom  AN      X      Y      Z        X      Y      Z        X      Y      Z
     1   6    -0.02   0.03   0.10     0.14   0.20  -0.01     0.05   0.00   0.06
     2   6    -0.02   0.03  -0.07    -0.01   0.22   0.01    -0.01   0.01  -0.03
     3   6     0.00   0.06  -0.10    -0.12   0.08   0.03    -0.03  -0.01  -0.06
     4   6    -0.01   0.09  -0.11    -0.08   0.01   0.01    -0.03  -0.02  -0.03
     5   6    -0.05   0.10  -0.07     0.06  -0.01  -0.03     0.00  -0.03  -0.08
     6   6    -0.04   0.06   0.11     0.17   0.10  -0.03     0.04  -0.02   0.00
     7   1    -0.01  -0.01   0.23     0.21   0.28  -0.01     0.09   0.00   0.16
     8   1    -0.03  -0.01  -0.13    -0.03   0.28   0.01    -0.02   0.03  -0.05
     9   1    -0.08   0.15  -0.12     0.10  -0.14  -0.07    -0.01  -0.05  -0.14
    10   1    -0.03   0.06   0.23     0.28   0.08  -0.05     0.07  -0.02   0.03
    11   6     0.01   0.06   0.00    -0.07   0.02   0.00     0.01  -0.02   0.10
    12   6     0.06   0.05   0.02    -0.13   0.07   0.05    -0.02  -0.02  -0.03
    13   6     0.07   0.05   0.14    -0.12   0.05  -0.02     0.03  -0.03   0.06
    14   1     0.05   0.04   0.12    -0.12   0.00   0.04    -0.04   0.02  -0.08
    15   6     0.10   0.03   0.21    -0.10   0.10   0.05     0.00  -0.02   0.02
    16   1     0.16   0.00   0.39    -0.09   0.09   0.08     0.01  -0.02   0.04
    17   8     0.03   0.03  -0.02    -0.09   0.02  -0.04     0.02   0.06   0.22
    18  17     0.09  -0.04  -0.04    -0.02  -0.33  -0.03    -0.02   0.00   0.02
    19   6    -0.09  -0.07  -0.09     0.09  -0.01   0.03    -0.10   0.08  -0.05
    20   6    -0.01  -0.09   0.00     0.03   0.01  -0.07    -0.02   0.04  -0.02
    21   1     0.01  -0.10   0.04    -0.03   0.02  -0.17     0.11   0.12   0.04
    22   6    -0.05  -0.10  -0.03     0.13  -0.02   0.11     0.02  -0.07   0.03
    23   1    -0.02  -0.12   0.01     0.18  -0.01   0.13     0.04  -0.16   0.14
    24   1    -0.01  -0.11  -0.07     0.20   0.00   0.12     0.17  -0.11  -0.06
    25   1    -0.09  -0.09   0.01     0.09  -0.05   0.18    -0.04  -0.08   0.10
    26   6    -0.19  -0.10  -0.10     0.04   0.02  -0.03     0.04   0.19  -0.07
    27   1    -0.21  -0.13  -0.18     0.03   0.02  -0.06     0.02   0.33  -0.04
    28   1    -0.26  -0.09  -0.05     0.01   0.07   0.00     0.05   0.17  -0.09
    29   1    -0.20  -0.10  -0.09     0.03   0.00  -0.07     0.16   0.16  -0.14
    30   6     0.01  -0.08   0.07     0.08   0.01   0.04    -0.02  -0.15  -0.21
    31   1     0.00  -0.08   0.09     0.03   0.02  -0.01     0.18  -0.20  -0.34
    32   1     0.05  -0.07   0.10     0.09   0.03   0.03    -0.07  -0.38  -0.06
                     13                     14                     15
                      A                      A                      A
 Frequencies --    267.7218               308.9747               328.7909
 Red. masses --      3.1418                 3.8215                 6.6868
 Frc consts  --      0.1327                 0.2149                 0.4259
 IR Inten    --     27.8390                22.9914                56.9388
  Atom  AN      X      Y      Z        X      Y      Z        X      Y      Z
     1   6    -0.02   0.04   0.00     0.04   0.00   0.02     0.09  -0.04  -0.09
     2   6    -0.01   0.04   0.02     0.00   0.01   0.02     0.00  -0.03   0.00
     3   6    -0.02   0.04   0.01    -0.04  -0.01  -0.03    -0.03  -0.09   0.07
     4   6    -0.01   0.02   0.02    -0.02  -0.03   0.06    -0.09  -0.08  -0.03
     5   6    -0.02   0.03   0.02     0.01  -0.04   0.00     0.06  -0.12  -0.01
     6   6    -0.02   0.04  -0.01     0.02  -0.01  -0.05     0.13  -0.08   0.01
     7   1    -0.02   0.04   0.00     0.07   0.02   0.07     0.10   0.01  -0.20
     8   1    -0.01   0.03   0.03     0.00   0.03   0.05    -0.02   0.05   0.01
     9   1    -0.01   0.03   0.02     0.03  -0.07   0.00     0.10  -0.22   0.00
    10   1    -0.02   0.04  -0.03     0.02  -0.01  -0.13     0.19  -0.09   0.08
    11   6    -0.02   0.00   0.01     0.02  -0.01   0.13    -0.02   0.05  -0.11
    12   6     0.00   0.04  -0.06    -0.05  -0.01  -0.16     0.05  -0.10   0.14
    13   6    -0.01   0.00  -0.03     0.05  -0.02   0.12     0.04   0.06  -0.16
    14   1     0.04   0.02   0.01     0.10   0.00   0.13     0.07   0.05  -0.09
    15   6    -0.02   0.03  -0.11    -0.04   0.01  -0.18     0.11  -0.03   0.07
    16   1    -0.06   0.04  -0.19    -0.07   0.03  -0.38     0.19  -0.05   0.15
    17   8    -0.05  -0.04  -0.04    -0.01   0.07   0.15    -0.16   0.40   0.02
    18  17     0.03   0.00   0.00    -0.01   0.01   0.04    -0.05   0.06  -0.01
    19   6     0.07  -0.04   0.17     0.06  -0.05  -0.09     0.04   0.00   0.09
    20   6     0.10  -0.03   0.17     0.09  -0.05  -0.01     0.03   0.02   0.00
    21   1     0.19   0.01   0.21     0.05  -0.13   0.07     0.02   0.03  -0.04
    22   6    -0.11  -0.02  -0.10     0.05   0.04  -0.05    -0.01  -0.15  -0.04
    23   1    -0.28  -0.01  -0.22     0.11   0.10  -0.07    -0.15  -0.24  -0.02
    24   1    -0.29  -0.03  -0.07     0.02   0.07   0.00     0.01  -0.19  -0.10
    25   1     0.07   0.00  -0.32     0.02   0.05  -0.01     0.09  -0.17  -0.15
    26   6    -0.04   0.08  -0.02    -0.15  -0.09  -0.14    -0.12  -0.03   0.02
    27   1    -0.09   0.15  -0.13    -0.19  -0.16  -0.31    -0.14  -0.10  -0.09
    28   1    -0.16   0.20   0.07    -0.30  -0.04  -0.03    -0.22   0.06   0.10
    29   1     0.02   0.04  -0.16    -0.18  -0.09  -0.15    -0.18  -0.03  -0.01
    30   6     0.12  -0.18   0.03     0.02   0.11   0.06     0.08  -0.01   0.07
    31   1     0.20  -0.20  -0.17    -0.07   0.14   0.25     0.04   0.01   0.00
    32   1    -0.02  -0.32   0.02     0.14   0.26   0.05     0.01   0.03  -0.03
                     16                     17                     18
                      A                      A                      A
 Frequencies --    369.1122               379.8727               396.0390
 Red. masses --      3.6353                 4.2374                 2.6950
 Frc consts  --      0.2918                 0.3603                 0.2490
 IR Inten    --     18.9194                 2.6909                 2.3024
  Atom  AN      X      Y      Z        X      Y      Z        X      Y      Z
     1   6     0.00  -0.02   0.01     0.00  -0.04  -0.03     0.02  -0.01   0.04
     2   6    -0.01  -0.01  -0.13     0.09  -0.05   0.10    -0.01  -0.01  -0.08
     3   6     0.06  -0.02   0.12     0.02  -0.01  -0.14     0.03  -0.01   0.05
     4   6     0.04   0.01   0.03     0.05   0.03  -0.08     0.04   0.00   0.09
     5   6    -0.04   0.03  -0.14     0.05   0.03   0.13    -0.01   0.01  -0.07
     6   6     0.02  -0.01   0.10    -0.03   0.01  -0.07     0.00   0.00   0.01
     7   1    -0.01  -0.03   0.01    -0.03  -0.07  -0.02     0.03  -0.03   0.10
     8   1    -0.08  -0.01  -0.40     0.17  -0.10   0.36    -0.06   0.00  -0.27
     9   1    -0.12   0.07  -0.39     0.11   0.06   0.39    -0.06   0.03  -0.24
    10   1     0.04  -0.01   0.25    -0.10   0.03  -0.17    -0.01   0.00   0.00
    11   6     0.06   0.03   0.01     0.10   0.07  -0.06     0.03   0.01   0.06
    12   6     0.00  -0.02   0.20    -0.12   0.00  -0.10    -0.02   0.00  -0.01
    13   6    -0.03   0.05  -0.09     0.01   0.09   0.00     0.02   0.01   0.10
    14   1    -0.07   0.06  -0.14    -0.06   0.05  -0.02     0.04   0.02   0.09
    15   6    -0.02   0.04  -0.01     0.00   0.05   0.09    -0.03   0.02  -0.09
    16   1    -0.02   0.05  -0.13     0.13   0.02   0.28    -0.06   0.04  -0.29
    17   8     0.11  -0.05   0.08     0.15   0.00  -0.01     0.01  -0.02  -0.11
    18  17    -0.09  -0.03   0.00    -0.14  -0.06   0.05    -0.02  -0.01   0.01
    19   6     0.08  -0.04   0.03     0.01   0.05   0.01    -0.04   0.13  -0.01
    20   6     0.07  -0.04   0.09     0.06   0.04   0.08     0.00   0.13  -0.04
    21   1     0.13  -0.10   0.29     0.17   0.02   0.25    -0.02   0.18  -0.15
    22   6     0.01   0.05  -0.05     0.01  -0.06  -0.07     0.03  -0.13  -0.05
    23   1    -0.03   0.10  -0.13    -0.10  -0.14  -0.04    -0.12  -0.32   0.07
    24   1    -0.13   0.06  -0.01     0.04  -0.09  -0.13     0.22  -0.19  -0.19
    25   1     0.06   0.09  -0.14     0.07  -0.07  -0.14     0.07  -0.21  -0.08
    26   6    -0.04  -0.02  -0.04    -0.07  -0.03   0.05    -0.07  -0.02   0.12
    27   1    -0.07  -0.05  -0.15    -0.06  -0.15   0.01    -0.04  -0.18   0.14
    28   1    -0.14   0.04   0.03    -0.09  -0.05   0.06    -0.03  -0.12   0.09
    29   1    -0.05  -0.03  -0.08    -0.14   0.00   0.13    -0.17   0.03   0.29
    30   6    -0.05   0.08  -0.11     0.01   0.03  -0.09     0.06   0.00   0.02
    31   1    -0.13   0.09  -0.08     0.04   0.02  -0.14     0.18  -0.02  -0.03
    32   1    -0.07   0.15  -0.18    -0.05  -0.02  -0.10     0.06  -0.11   0.11
                     19                     20                     21
                      A                      A                      A
 Frequencies --    407.3599               432.7782               445.1577
 Red. masses --      4.0119                 2.7109                 2.6848
 Frc consts  --      0.3922                 0.2991                 0.3135
 IR Inten    --      4.8017                15.4825                 5.4795
  Atom  AN      X      Y      Z        X      Y      Z        X      Y      Z
     1   6     0.06  -0.08   0.00     0.06  -0.04   0.15     0.01   0.03   0.08
     2   6     0.07  -0.07  -0.06    -0.01  -0.01  -0.10    -0.08   0.04  -0.03
     3   6     0.08  -0.06   0.00     0.00  -0.01  -0.06    -0.08   0.01   0.02
     4   6     0.06   0.04   0.03     0.05   0.00   0.18    -0.03  -0.07   0.10
     5   6     0.04   0.05  -0.03     0.03   0.01   0.04    -0.02  -0.08   0.01
     6   6     0.02   0.01   0.00    -0.02   0.01  -0.14     0.00  -0.04  -0.07
     7   1     0.02  -0.12   0.02     0.14  -0.06   0.45     0.09   0.07   0.20
     8   1     0.05  -0.07  -0.13    -0.06   0.00  -0.26    -0.12   0.08  -0.14
     9   1     0.02   0.07  -0.10     0.02   0.00  -0.01    -0.02  -0.11  -0.03
    10   1    -0.04   0.02   0.01    -0.13   0.03  -0.44     0.02  -0.04  -0.22
    11   6     0.07   0.09   0.02     0.00   0.01   0.06     0.02   0.02  -0.01
    12   6    -0.04  -0.05  -0.02     0.00  -0.01  -0.05    -0.01   0.01  -0.02
    13   6     0.03   0.10   0.11    -0.06   0.03  -0.11     0.07   0.02  -0.01
    14   1     0.06   0.10   0.13    -0.07   0.06  -0.14     0.05   0.03  -0.04
    15   6     0.01   0.03  -0.06     0.02  -0.04   0.10     0.05   0.05   0.01
    16   1     0.06   0.04  -0.22     0.09  -0.07   0.33     0.07   0.04   0.04
    17   8     0.04   0.12  -0.11    -0.01  -0.01   0.01     0.00   0.06  -0.12
    18  17    -0.10  -0.03   0.03     0.01   0.01   0.00     0.00   0.01   0.00
    19   6    -0.04  -0.09   0.00     0.05  -0.02   0.09    -0.05   0.00  -0.12
    20   6    -0.11  -0.08  -0.05    -0.03  -0.01  -0.07     0.03  -0.01   0.18
    21   1    -0.22  -0.05  -0.26    -0.13   0.00  -0.23     0.24  -0.09   0.58
    22   6    -0.07   0.09   0.06    -0.02  -0.01  -0.01     0.02   0.05   0.02
    23   1     0.06   0.23  -0.01    -0.08   0.00  -0.06     0.15   0.09   0.05
    24   1    -0.20   0.14   0.16    -0.11  -0.02   0.00     0.09   0.08   0.05
    25   1    -0.13   0.16   0.10     0.05   0.02  -0.11    -0.09   0.04   0.16
    26   6     0.09   0.04  -0.07    -0.02   0.03   0.00     0.06  -0.06  -0.02
    27   1     0.08   0.23   0.00    -0.05   0.05  -0.08     0.10  -0.07   0.09
    28   1     0.14   0.09  -0.10    -0.11   0.14   0.06     0.17  -0.22  -0.10
    29   1     0.20   0.00  -0.21    -0.02   0.00  -0.10     0.06  -0.02   0.12
    30   6    -0.02  -0.15   0.15    -0.02   0.04   0.00    -0.03  -0.04  -0.03
    31   1    -0.02  -0.15   0.04    -0.11   0.06  -0.03     0.05  -0.06  -0.03
    32   1     0.02  -0.23   0.24     0.01   0.09  -0.02    -0.18  -0.08  -0.13
                     22                     23                     24
                      A                      A                      A
 Frequencies --    477.1710               529.0553               539.1243
 Red. masses --      5.1239                 5.0148                 3.4519
 Frc consts  --      0.6874                 0.8270                 0.5911
 IR Inten    --      0.7214                 5.5448                 2.0395
  Atom  AN      X      Y      Z        X      Y      Z        X      Y      Z
     1   6     0.09  -0.02  -0.02     0.00   0.19   0.01    -0.02   0.06   0.12
     2   6     0.16  -0.04  -0.06     0.06   0.14   0.00     0.04   0.05  -0.10
     3   6     0.10  -0.10  -0.03    -0.09  -0.10   0.02     0.05   0.03  -0.05
     4   6     0.00   0.16   0.02    -0.09  -0.07   0.03     0.03  -0.02  -0.14
     5   6     0.00   0.20   0.01    -0.18  -0.05   0.04    -0.02   0.00   0.14
     6   6     0.01   0.22   0.01    -0.01   0.17   0.02    -0.09   0.04  -0.10
     7   1    -0.02  -0.14   0.02    -0.05   0.14   0.00     0.03  -0.01   0.43
     8   1     0.15  -0.02  -0.07     0.03   0.22   0.01     0.04   0.00  -0.16
     9   1     0.01   0.17   0.00    -0.15  -0.11   0.01     0.05   0.04   0.47
    10   1    -0.10   0.23   0.03     0.14   0.13  -0.01    -0.10   0.05  -0.30
    11   6    -0.16   0.00   0.05     0.03   0.04  -0.02     0.04  -0.09  -0.10
    12   6     0.05  -0.14  -0.01     0.06  -0.18  -0.04     0.07   0.01   0.24
    13   6    -0.09  -0.03  -0.02     0.17   0.01  -0.03     0.04  -0.12   0.02
    14   1     0.00   0.10  -0.06     0.23   0.10  -0.07     0.02  -0.20   0.08
    15   6    -0.02  -0.23  -0.02     0.17  -0.08  -0.05    -0.04   0.01  -0.08
    16   1     0.01  -0.22  -0.01     0.29  -0.10  -0.07    -0.19   0.06  -0.37
    17   8    -0.19   0.01   0.00     0.09  -0.10  -0.03     0.00   0.06   0.04
    18  17    -0.02  -0.01   0.00    -0.07   0.01   0.02    -0.03  -0.02  -0.01
    19   6    -0.02   0.02  -0.09    -0.10  -0.03   0.04     0.00   0.01  -0.01
    20   6     0.06   0.01   0.12     0.08  -0.08  -0.09    -0.01   0.01  -0.01
    21   1     0.24  -0.05   0.46     0.04  -0.02  -0.20    -0.02   0.02  -0.04
    22   6     0.04   0.01   0.02    -0.11  -0.05   0.05     0.01   0.00  -0.01
    23   1     0.12   0.00   0.07    -0.13  -0.07   0.06     0.01   0.00   0.00
    24   1     0.15   0.02   0.02    -0.10  -0.06   0.03     0.02   0.00  -0.01
    25   1    -0.04  -0.03   0.13    -0.11  -0.06   0.05     0.00   0.00   0.00
    26   6     0.03  -0.05  -0.01     0.01   0.06   0.03     0.00   0.00   0.00
    27   1     0.05  -0.09   0.05     0.01   0.21   0.11     0.00  -0.02  -0.01
    28   1     0.09  -0.17  -0.06     0.07   0.08  -0.02     0.00  -0.01  -0.01
    29   1     0.01  -0.01   0.11     0.11   0.03  -0.07    -0.01   0.00   0.01
    30   6     0.01   0.01  -0.04     0.06   0.07  -0.02     0.01  -0.03   0.03
    31   1     0.07   0.00   0.00    -0.11   0.11   0.15     0.07  -0.04   0.09
    32   1    -0.10   0.02  -0.14     0.20   0.26  -0.04     0.00  -0.03   0.04
                     25                     26                     27
                      A                      A                      A
 Frequencies --    544.1736               557.7151               657.8373
 Red. masses --      3.2391                 4.7590                 7.1258
 Frc consts  --      0.5651                 0.8721                 1.8169
 IR Inten    --     17.7554                 2.2617                19.1566
  Atom  AN      X      Y      Z        X      Y      Z        X      Y      Z
     1   6    -0.03   0.10  -0.01    -0.11   0.09   0.01     0.00  -0.07   0.01
     2   6     0.06   0.07   0.01     0.12   0.05  -0.01    -0.17  -0.03   0.04
     3   6    -0.02  -0.04   0.00     0.15   0.05   0.07     0.00   0.13   0.08
     4   6    -0.01  -0.05   0.02     0.18  -0.06   0.11     0.01   0.14   0.01
     5   6    -0.10  -0.03   0.00    -0.09   0.00  -0.04     0.18   0.15  -0.03
     6   6    -0.01   0.07   0.04    -0.08   0.02   0.08     0.02  -0.03  -0.01
     7   1    -0.07   0.07  -0.07    -0.21   0.03  -0.17     0.06   0.03  -0.06
     8   1     0.06   0.08   0.05     0.11  -0.06  -0.18    -0.19  -0.03  -0.11
     9   1    -0.11  -0.03  -0.05    -0.21   0.15  -0.32     0.14   0.19  -0.07
    10   1     0.08   0.05   0.06    -0.02   0.01   0.05    -0.18   0.01  -0.04
    11   6     0.04  -0.02   0.02     0.09  -0.17  -0.10    -0.12  -0.07  -0.08
    12   6     0.01  -0.06  -0.04    -0.07   0.10  -0.20     0.12   0.07  -0.08
    13   6     0.02  -0.02  -0.06     0.01  -0.19  -0.06     0.31  -0.16  -0.15
    14   1     0.04  -0.01  -0.04    -0.12  -0.35   0.00     0.36  -0.07  -0.16
    15   6     0.05  -0.06   0.02    -0.06   0.00   0.07     0.23   0.13  -0.03
    16   1     0.10  -0.08   0.13    -0.13  -0.01   0.34     0.19   0.11   0.17
    17   8     0.05   0.00   0.02    -0.03   0.17   0.01    -0.13  -0.13   0.09
    18  17    -0.01   0.00   0.00    -0.02  -0.03   0.02    -0.15  -0.04   0.04
    19   6     0.15   0.04  -0.02    -0.04  -0.01   0.00     0.00   0.01  -0.03
    20   6    -0.18   0.11   0.05     0.03  -0.03  -0.02    -0.04   0.04  -0.01
    21   1    -0.31   0.07  -0.11     0.09  -0.03   0.07    -0.12   0.05  -0.15
    22   6     0.15   0.07  -0.08    -0.05  -0.02   0.02     0.03   0.01  -0.01
    23   1     0.13   0.10  -0.12    -0.03  -0.02   0.03     0.06   0.01   0.01
    24   1     0.08   0.08  -0.05    -0.04  -0.02   0.02     0.08   0.02  -0.01
    25   1     0.18   0.11  -0.14    -0.06  -0.02   0.04    -0.01  -0.01   0.04
    26   6    -0.02  -0.05  -0.03     0.01   0.01   0.01     0.00  -0.01  -0.01
    27   1    -0.04  -0.26  -0.19     0.01   0.08   0.04     0.00  -0.06  -0.03
    28   1    -0.15  -0.02   0.07     0.04   0.00  -0.02     0.00  -0.04  -0.01
    29   1    -0.16  -0.03   0.05     0.04   0.00  -0.02    -0.02   0.00   0.02
    30   6    -0.11  -0.10   0.09     0.03   0.01   0.00    -0.01  -0.03   0.06
    31   1     0.12  -0.16  -0.16     0.01   0.02   0.19     0.12  -0.05   0.20
    32   1    -0.27  -0.39   0.15     0.03   0.15  -0.11    -0.06  -0.04   0.01
                     28                     29                     30
                      A                      A                      A
 Frequencies --    675.2958               754.8386               775.9621
 Red. masses --      4.3111                 6.6552                 4.2754
 Frc consts  --      1.1583                 2.2342                 1.5167
 IR Inten    --     18.9758                14.8330                48.7169
  Atom  AN      X      Y      Z        X      Y      Z        X      Y      Z
     1   6     0.06  -0.02   0.06     0.19  -0.17  -0.07    -0.03   0.03   0.03
     2   6    -0.03  -0.02  -0.03     0.15  -0.15  -0.05     0.12   0.01  -0.05
     3   6     0.04  -0.06   0.30    -0.01  -0.10  -0.07     0.12  -0.03   0.20
     4   6    -0.08   0.01  -0.10    -0.04  -0.09   0.08    -0.05  -0.01  -0.25
     5   6     0.00  -0.01   0.07    -0.22  -0.06   0.05    -0.02  -0.05  -0.01
     6   6     0.00   0.04  -0.04     0.02   0.23   0.02    -0.04  -0.06  -0.05
     7   1     0.01  -0.02  -0.09    -0.02  -0.39  -0.05    -0.03  -0.04   0.18
     8   1    -0.22   0.08  -0.64     0.14  -0.06   0.07     0.05  -0.04  -0.34
     9   1     0.02  -0.06   0.08    -0.20  -0.20  -0.10     0.14  -0.06   0.57
    10   1    -0.08   0.05  -0.33    -0.01   0.21   0.00     0.11  -0.09   0.20
    11   6    -0.07   0.07  -0.29    -0.06  -0.04  -0.05     0.02  -0.03   0.31
    12   6    -0.07  -0.02  -0.16    -0.18   0.08   0.08    -0.05   0.04  -0.10
    13   6    -0.04   0.07   0.11     0.10  -0.03  -0.04     0.01   0.02  -0.08
    14   1     0.00  -0.06   0.25    -0.02  -0.16   0.00     0.00   0.19  -0.24
    15   6    -0.02  -0.03   0.03     0.03   0.39   0.03     0.05   0.09   0.03
    16   1     0.05  -0.04   0.08    -0.01   0.37   0.05     0.09   0.07   0.15
    17   8     0.05  -0.04   0.10    -0.09  -0.08   0.05    -0.08  -0.02  -0.06
    18  17     0.03   0.01   0.00     0.05   0.02  -0.01     0.00   0.00   0.00
    19   6     0.01   0.00  -0.01    -0.01   0.00  -0.01     0.01   0.00   0.00
    20   6     0.01   0.00   0.01     0.00   0.02   0.01    -0.01   0.00   0.00
    21   1    -0.02   0.01  -0.04    -0.03   0.03  -0.05    -0.01   0.00   0.01
    22   6     0.02   0.01  -0.01     0.00   0.00   0.00    -0.01   0.00   0.01
    23   1     0.03   0.01  -0.01     0.03   0.00   0.02    -0.01  -0.01   0.01
    24   1     0.02   0.01  -0.01     0.04   0.01   0.00    -0.01  -0.01   0.00
    25   1     0.01   0.00   0.00    -0.03  -0.02   0.04     0.00   0.00   0.00
    26   6     0.00   0.00   0.00     0.00  -0.01  -0.01    -0.01   0.00  -0.01
    27   1     0.00  -0.03  -0.04     0.01  -0.02   0.00     0.01   0.00   0.03
    28   1    -0.02   0.01   0.01     0.02  -0.04  -0.02     0.01  -0.02  -0.01
    29   1    -0.02  -0.01  -0.01    -0.01   0.00   0.02     0.02   0.01   0.02
    30   6     0.00  -0.01   0.00     0.00   0.00   0.01     0.00   0.02   0.00
    31   1     0.03  -0.03  -0.10     0.05  -0.01   0.05    -0.05   0.03  -0.02
    32   1     0.04  -0.10   0.09    -0.01  -0.01   0.00    -0.04   0.05  -0.06
                     31                     32                     33
                      A                      A                      A
 Frequencies --    792.1019               809.3204               825.2171
 Red. masses --      2.8338                 1.3305                 1.9294
 Frc consts  --      1.0476                 0.5135                 0.7741
 IR Inten    --     30.5442                43.5651                63.4395
  Atom  AN      X      Y      Z        X      Y      Z        X      Y      Z
     1   6    -0.10   0.09   0.04    -0.01   0.00  -0.06    -0.06   0.04   0.00
     2   6     0.16   0.04  -0.03    -0.02   0.00  -0.06     0.08   0.03  -0.04
     3   6     0.06  -0.01  -0.08     0.01   0.00   0.05     0.03  -0.03  -0.01
     4   6     0.04  -0.01   0.04     0.02   0.00   0.06     0.01   0.00   0.05
     5   6     0.04  -0.07   0.00    -0.01   0.00  -0.04     0.02  -0.03  -0.01
     6   6    -0.03  -0.16   0.03    -0.02   0.01  -0.06    -0.02  -0.08  -0.01
     7   1    -0.15   0.07  -0.12     0.16  -0.04   0.55    -0.01   0.02   0.17
     8   1     0.18  -0.07  -0.07     0.10  -0.02   0.37     0.14  -0.04   0.11
     9   1    -0.05   0.01  -0.21     0.08  -0.02   0.27     0.01  -0.01  -0.01
    10   1     0.03  -0.15  -0.22     0.16  -0.03   0.56     0.08  -0.10   0.11
    11   6    -0.10   0.05  -0.06    -0.01   0.00  -0.07    -0.07   0.06  -0.06
    12   6     0.00  -0.01   0.03     0.00   0.00  -0.03    -0.02  -0.01   0.00
    13   6     0.00   0.09   0.02     0.00   0.00   0.00     0.00   0.06   0.05
    14   1     0.08   0.16   0.01    -0.01  -0.03   0.02     0.06   0.08   0.08
    15   6     0.04   0.05  -0.01     0.00  -0.01   0.01     0.03   0.04   0.00
    16   1     0.11   0.04  -0.05     0.00  -0.01   0.00     0.09   0.03  -0.06
    17   8    -0.10  -0.06   0.05     0.00   0.00   0.02    -0.04  -0.04   0.03
    18  17    -0.01   0.00   0.00     0.00   0.00   0.00     0.00   0.00   0.00
    19   6    -0.02  -0.01  -0.02    -0.01   0.00  -0.01     0.02   0.01   0.02
    20   6     0.05   0.02   0.09     0.02   0.00   0.03    -0.07  -0.01  -0.11
    21   1    -0.16   0.05  -0.27    -0.07   0.02  -0.11     0.24  -0.06   0.41
    22   6    -0.03  -0.01   0.00    -0.01   0.00   0.00     0.05   0.01  -0.01
    23   1     0.05   0.00   0.04     0.01   0.00   0.01    -0.02   0.01  -0.04
    24   1     0.05   0.01   0.02     0.01   0.00   0.01    -0.02  -0.01  -0.02
    25   1    -0.11  -0.05   0.12    -0.04  -0.01   0.04     0.11   0.04  -0.10
    26   6     0.01  -0.03  -0.04     0.00  -0.01  -0.01     0.00   0.03   0.04
    27   1     0.02  -0.03  -0.01     0.01  -0.01   0.00    -0.02   0.00  -0.02
    28   1     0.05  -0.09  -0.06     0.02  -0.02  -0.02    -0.05   0.09   0.07
    29   1     0.01  -0.03  -0.01     0.01  -0.01  -0.01    -0.03   0.02   0.02
    30   6     0.01   0.07   0.01     0.00   0.02   0.01     0.00  -0.09  -0.01
    31   1    -0.06   0.06  -0.51    -0.01   0.02  -0.17     0.11  -0.08   0.56
    32   1     0.13  -0.21   0.32     0.05  -0.08   0.12    -0.15   0.21  -0.35
                     34                     35                     36
                      A                      A                      A
 Frequencies --    893.0520               904.0867               912.0690
 Red. masses --      2.0517                 1.5017                 1.3017
 Frc consts  --      0.9641                 0.7232                 0.6380
 IR Inten    --     15.1238                 0.9432                95.1277
  Atom  AN      X      Y      Z        X      Y      Z        X      Y      Z
     1   6     0.00   0.00   0.00    -0.01   0.00  -0.04     0.00  -0.01  -0.01
     2   6     0.00   0.00  -0.01    -0.04   0.01  -0.12     0.00   0.00  -0.02
     3   6     0.00   0.00   0.00     0.02   0.00   0.07     0.01   0.00   0.02
[...]
 001969,0.00000017,-0.00002352,-0.00000895,-0.00000935,0.00008635,0.000
 03183,-0.00005876,0.00001003,0.00003071,-0.00001259,0.00020956,-0.0004
 6117,-0.00077552,-0.00018754,0.00037935,0.00015784,-0.00095893,0.00053
 332,-0.00067568,0.00003886,0.00001121,0.00010197,0.00053232,0.00001237
 ,-0.00014993,-0.00001306,-0.00001912,-0.00001376,-0.00046603,-0.000180
 55,-0.00028819,0.00003533,0.00001952,-0.00000809,-0.01526935,0.0082976
 3,0.01633038,-0.00110048,-0.00128583,-0.00023233,-0.00004293,-0.000154
 22,0.00008713,0.00013459,0.00014187,0.00000409,-0.00003867,0.00001383,
 0.00009997,-0.00001848,-0.00001965,0.00009302,-0.00006191,0.00001445,0
 .00003564,-0.19362363,-0.03174263,0.05176515,0.23437358,0.00010147,0.0
 0010810,-0.00001859,0.00003103,-0.00021203,-0.00002192,-0.00011181,0.0
 0021820,0.00005017,0.00005731,-0.00007196,-0.00001449,0.00012691,-0.00
 012415,-0.00003013,-0.00019307,0.00000255,0.00002672,-0.00000549,0.000
 00385,0.00000628,0.00001288,0.00001079,-0.00000417,0.00012179,-0.00005
 045,0.00013035,0.00001359,0.00000608,0.00001290,-0.00027925,0.00053404
 ,-0.00031035,0.00003875,-0.00020454,-0.00002685,0.00028773,-0.00020070
 ,0.00032120,0.00000162,-0.00002074,-0.00007881,-0.00027872,-0.00001036
 ,0.00009138,0.00000021,-0.00000016,-0.00001883,0.00033803,-0.00030853,
 0.00018156,0.00006828,0.00001079,-0.00002197,0.01673277,0.00371622,-0.
 00942666,-0.00009733,-0.00076801,0.00016668,0.00001515,0.00005509,-0.0
 0011956,0.00071662,-0.00122859,-0.00169943,0.00026039,0.00017869,-0.00
 015497,-0.00002623,-0.00001645,0.00003939,-0.00012931,-0.00000966,-0.0
 0000077,-0.03371859,-0.04072539,0.01019744,0.03589775,0.04568052,-0.00
 010781,-0.00014053,0.00000579,0.00004371,0.00009891,-0.00004447,0.0000
 3097,-0.00005129,-0.00002760,0.00021084,-0.00030472,0.00018161,-0.0002
 0099,0.00039861,-0.00007306,0.00027562,-0.00015106,-0.00013136,-0.0000
 4294,0.00004105,0.00002782,-0.00006637,-0.00002237,0.00003276,-0.00008
 661,0.00014068,-0.00014389,0.00002583,0.00008149,0.00000710,-0.0022658
 6,-0.00116181,-0.00153749,-0.00016602,-0.00014079,0.00001898,0.0004208
 3,0.00064256,-0.00007853,0.00008294,-0.00010248,-0.00010809,-0.0002465
 1,0.00000848,0.00015110,-0.00000759,-0.00006306,-0.00000989,0.00139935
 ,0.00031251,0.00042437,0.00021560,0.00009598,-0.00006707,0.02402740,-0
 .00510296,-0.01259926,-0.00038215,0.00034254,-0.00025419,0.00015116,0.
 00002045,-0.00016742,0.00077375,-0.00142870,-0.00132249,0.00031339,0.0
 0013435,-0.00017224,0.00000073,-0.00006457,0.00003562,-0.00004854,-0.0
 0001696,0.00005917,0.05042761,0.00972546,-0.04873402,-0.06865238,-0.00
 634918,0.06087277,-0.00003410,-0.00004522,0.00000629,0.00001567,0.0000
 3009,0.00000987,-0.00000654,-0.00002004,-0.00002415,0.00011845,-0.0001
 3865,0.00006981,-0.00001705,0.00008502,0.00003131,0.00007519,-0.000054
 97,-0.00001965,-0.00001694,0.00001499,0.00000260,-0.00002403,-0.000004
 62,0.00000133,0.00000859,0.00001565,-0.00003092,0.00000487,0.00003109,
 -0.00000643,-0.00074673,-0.00015967,0.00019620,-0.00005686,-0.00004004
 ,0.00001671,0.00017217,0.00024058,-0.00003093,0.00004024,-0.00005496,-
 0.00004722,-0.00011186,-0.00000600,0.00005089,-0.00000439,-0.00002610,
 -0.00000939,0.00138315,0.00000887,0.00092220,0.00008602,0.00003300,-0.
 00002720,0.00687434,-0.00167186,-0.00151102,-0.00072605,0.00031115,0.0
 0041908,0.00004683,0.00003566,-0.00020430,-0.00119496,-0.00001943,-0.0
 0017704,0.00000878,-0.00002236,0.00002694,0.00010680,0.00011432,0.0000
 8898,-0.00040762,0.00013047,0.00074189,-0.09536148,0.00566058,-0.08690
 909,-0.02141626,-0.00019255,-0.01554437,0.10982659,0.00007882,0.000067
 80,-0.00002256,0.00003686,-0.00013346,-0.00001224,-0.00002590,0.000159
 11,0.00001675,-0.00007675,0.00010192,0.00001846,0.00003103,-0.00010325
 ,-0.00001725,-0.00010013,0.00000216,0.00001885,-0.00000936,0.00001007,
 0.00000458,0.00000006,0.00000259,-0.00000081,0.00004043,0.00002457,0.0
 0000011,0.00001487,0.00001810,0.00000744,0.00110211,0.00057927,-0.0003
 5936,0.00000095,-0.00016209,-0.00001754,0.00022923,-0.00058641,0.00060
 298,-0.00002433,0.00003230,-0.00007626,-0.00012460,0.00002028,0.000021
 66,-0.00000269,0.00000145,-0.00000845,-0.00174119,-0.00027096,-0.00146
 811,0.00002313,0.00000545,-0.00000456,-0.00597443,-0.00209821,-0.01871
 168,0.00118256,0.00009357,0.00004169,0.00008528,-0.00003808,0.00030863
 ,0.00012286,-0.00033365,0.00012554,0.00001348,-0.00002092,0.00001512,-
 0.00009422,0.00009431,0.00006295,0.00010734,0.00014703,-0.00011165,0.0
 0567374,-0.03217108,0.00697142,-0.00408014,0.00385876,-0.00295214,-0.0
 0740239,0.03588254,0.00010116,0.00008323,-0.00002731,0.00009056,-0.000
 16337,-0.00004557,0.00000157,0.00027881,0.00002024,0.00000283,0.000153
 52,0.00009461,0.00007548,-0.00012264,0.00001017,-0.00007995,-0.0000162
 2,0.00001340,-0.00002856,0.00002578,0.00001382,-0.00003516,-0.00001074
 ,0.00001394,-0.00005114,0.00002889,-0.00003632,0.00000583,0.00003713,0
 .00000417,0.00079001,0.00059049,-0.00040813,-0.00004736,-0.00039508,-0
 .00004441,0.00090251,-0.00059761,0.00099466,-0.00002100,-0.00001681,-0
 .00018688,-0.00041861,0.00004692,0.00014222,-0.00000415,-0.00003972,-0
 .00000549,-0.00122350,-0.00036712,-0.00113181,0.00013313,0.00005848,-0
 .00003916,-0.00808180,-0.01532729,-0.03191437,0.00155667,0.00209292,-0
 .00035523,0.00024745,-0.00005602,0.00030007,0.00009862,0.00033191,0.00
 066789,-0.00000543,-0.00011637,-0.00000069,0.00001075,0.00002166,-0.00
 020186,0.00076645,-0.00009691,-0.00041706,-0.08748876,0.00730245,-0.15
 164531,-0.00319829,-0.00044628,0.00364632,0.10615946,-0.00167860,0.191
 06958,-0.00010742,-0.00014377,0.00001098,0.00002750,0.00017683,0.00000
 449,0.00009920,-0.00015871,-0.00007215,0.00010355,-0.00004794,0.000129
 73,-0.00033529,0.00011262,0.00009037,0.00027948,-0.00008691,-0.0000713
 8,-0.00002848,0.00003127,0.00000822,-0.00005677,-0.00002066,0.00001331
 ,-0.00012272,0.00019003,-0.00036379,0.00001224,0.00006793,-0.00001327,
 -0.00060820,-0.00083040,-0.00049087,-0.00015418,0.00004683,0.00006112,
 -0.00020060,0.00038347,-0.00015487,0.00004951,-0.00002665,-0.00001487,
 0.00011907,0.00003475,-0.00001119,-0.00000856,-0.00003673,-0.00000793,
 -0.00010057,0.00028844,0.00034804,0.00009118,0.00005203,-0.00002335,0.
 00385042,0.01068122,-0.00012550,-0.00042834,0.00040112,0.00076999,0.00
 011975,0.00008304,0.00004182,-0.00075175,-0.00001940,0.00007616,0.0000
 3008,0.00004431,0.00004339,-0.00014550,0.00015872,0.00059099,-0.000488
 06,0.00032019,0.00022144,-0.03376413,-0.00340867,0.00214580,-0.0041083
 0,-0.01940232,0.00964651,0.00136385,0.01183355,-0.00847264,0.03494762,
 0.00007367,0.00007120,-0.00002026,0.00006730,-0.00020082,-0.00003571,-
 0.00007316,0.00024786,0.00003256,0.00019763,-0.00016120,0.00016127,0.0
 0003070,0.00000859,-0.00007004,-0.00011187,-0.00010076,-0.00000973,-0.
 00002758,0.00002406,0.00001319,-0.00001849,0.00000157,0.00000404,0.000
 04172,0.00016709,-0.00001374,0.00004621,0.00006402,0.00001071,-0.00119
 574,-0.00009539,-0.00017071,-0.00000700,-0.00033113,-0.00003856,0.0008
 4419,0.00000613,0.00043690,0.00002677,-0.00007268,-0.00015428,-0.00048
 790,-0.00000208,0.00017682,-0.00000179,-0.00003224,-0.00001467,0.00109
 101,-0.00009403,0.00068795,0.00014426,0.00004787,-0.00004778,0.0061025
 9,-0.03408262,-0.00795058,0.00097445,0.00011841,-0.00104176,-0.0000157
 3,-0.00024996,-0.00022922,-0.00013599,-0.00003440,0.00040390,-0.000144
 77,-0.00009767,-0.00001596,0.00021501,0.00024825,-0.00039988,0.0003815
 8,0.00000078,-0.00004648,-0.00220362,-0.19683303,0.05670609,-0.0076886
 8,-0.00932363,0.00692280,0.00334160,-0.00513320,0.00844949,-0.00065704
 ,0.24584684,-0.00011888,-0.00013836,0.00002026,-0.00000395,0.00017604,
 -0.00001538,0.00007994,-0.00017176,-0.00002650,0.00024842,-0.00015226,
 0.00006142,-0.00018006,0.00016334,0.00003698,0.00024234,-0.00005722,-0
 .00011007,-0.00001163,0.00001756,0.00001384,-0.00003551,-0.00001343,0.
 00001831,-0.00022193,0.00013005,-0.00011935,0.00000783,0.00004359,0.00
 001227,-0.00153468,-0.00100616,-0.00014166,-0.00008159,0.00007773,0.00
 002317,-0.00004762,0.00064546,-0.00051247,0.00005064,-0.00005420,0.000
 03009,0.00003696,-0.00000436,0.00003379,-0.00000085,-0.00001882,0.0000
 0089,0.00107482,0.00079159,0.00053665,0.00006928,0.00003494,-0.0000224
 4,0.00156324,-0.01937317,0.00502921,0.00043307,-0.00191922,-0.00179502
 ,-0.00013366,-0.00035637,-0.00011912,0.00019841,0.00007733,-0.00054446
 ,-0.00001118,-0.00006144,0.00002301,0.00050159,-0.00017664,-0.00046497
 ,0.00016586,-0.00014788,0.00012301,0.00142419,0.05889730,-0.05353464,0
 .00450260,0.00826788,-0.00042193,-0.00432228,0.01789592,-0.01001772,-0
 .00449095,-0.06365401,0.06139859,0.00684302,0.00761004,-0.00138453,0.0
 0423115,-0.01149494,-0.00202228,-0.00126600,0.01979139,0.00238893,-0.0
 1120722,0.01099215,0.00251410,0.00293682,-0.00982851,-0.00156192,-0.00
 932453,0.00100419,0.00276256,-0.00045274,0.00036052,0.00015485,-0.0004
 6515,-0.00005960,0.00021742,0.00092158,0.00022390,-0.00008362,0.000182
 09,0.00055459,0.00000809,0.07142386,0.07587276,-0.02411912,0.00474022,
 -0.02379730,-0.00528469,0.06788197,-0.06837256,0.09904020,-0.00226189,
 0.00058837,-0.01667777,-0.04566045,0.00163022,0.00137134,-0.00021426,-
 0.00123818,0.00007158,-0.09236308,-0.01513047,-0.02346830,0.00240388,0
 .00105226,-0.00042087,0.01075742,-0.10893610,0.05196377,-0.28592360,-0
 .02257284,0.08082519,-0.03573239,0.00268120,0.01792713,0.00609084,0.00
 295784,-0.00081752,-0.00081672,0.00015401,0.00114089,-0.00021584,-0.00
 148712,0.00117273,-0.00057521,-0.00037321,-0.00054814,-0.00754253,0.00
 630913,-0.00200201,0.00177448,0.00006226,-0.00005205,0.00004131,-0.000
 91113,-0.00183517,0.00033423,-0.00081681,0.00064301,0.43453403,-0.0000
 8478,-0.00018824,0.00001305,-0.00011658,0.00025056,0.00012058,-0.00002
 827,-0.00087003,-0.00005462,0.00052282,-0.00077891,-0.00079588,-0.0000
 8204,0.00023100,0.00011812,0.00027451,0.00010111,0.00001007,0.00000550
 ,-0.00000265,-0.00001666,0.00004561,-0.00000381,-0.00002082,-0.0000690
 2,0.00001790,-0.00002438,-0.00002415,-0.00006518,-0.00002624,0.0042077
 4,-0.00795881,0.00952760,-0.00065678,0.00119489,0.00037485,-0.00497115
 ,-0.01452663,-0.00268345,-0.00058675,0.00160342,-0.00184764,0.00296063
 ,0.00137250,-0.00161321,-0.00018781,-0.00003222,-0.00004403,-0.0024861
 5,-0.00315365,0.00123710,-0.00011270,-0.00007363,0.00013108,-0.0311334
 8,-0.02871422,0.01317606,-0.11596557,-0.10246585,0.03338342,0.01140137
 ,0.00651411,-0.00493860,-0.00094300,-0.00293249,0.00055958,0.00017693,
 -0.00011658,-0.00021627,-0.00041318,-0.00000192,0.00008565,-0.00000335
 ,-0.00002990,0.00016865,-0.00173787,-0.00307319,-0.00023136,-0.0000417
 2,-0.00145037,-0.00055838,0.00001757,0.00007790,0.00009972,-0.00008391
 ,0.00014555,0.00006299,0.11690182,0.45618389,0.00373893,0.00414991,-0.
 00076073,0.00241097,-0.00634821,-0.00113156,-0.00057112,0.01116269,0.0
 0143850,-0.00546754,0.00593405,0.00106590,0.00163290,-0.00519237,-0.00
 078554,-0.00500431,0.00048696,0.00146392,-0.00028168,0.00022598,0.0000
 9695,-0.00030170,-0.00004807,0.00012969,0.00047365,0.00017328,-0.00006
 212,0.00010637,0.00034545,0.00000325,0.03097527,0.04508644,-0.01622740
 ,0.00387664,-0.01416186,-0.00327861,0.05278466,-0.03673669,0.04164142,
 -0.00595265,-0.00124621,-0.02435558,-0.02818726,0.00009524,0.00428222,
 0.00003886,-0.00072800,0.00013953,-0.04060728,-0.00517235,-0.00990481,
 0.00126838,0.00064572,-0.00051363,0.01635331,-0.02442514,0.02103686,0.
 15069615,0.06980440,-0.10254831,0.01941211,0.00210702,-0.00295562,0.00
 348116,0.00172274,0.00154412,-0.00036800,-0.00001933,0.00061843,-0.000
 13817,-0.00069038,0.00059953,0.00011696,-0.00008823,-0.00040632,-0.003
 63701,0.00315937,-0.00201537,0.00048995,-0.00130096,0.00007925,0.00012
 530,-0.00071568,-0.00078521,0.00012631,-0.00027783,0.00048036,-0.26997
 217,0.01285458,0.22914490,-0.00013693,-0.00012736,0.00002980,-0.000084
 16,0.00020059,0.00003976,0.00006523,-0.00027592,-0.00007706,0.00005305
 ,-0.00012608,0.00014085,-0.00005452,0.00014636,0.00001717,0.00013431,-
 0.00004282,-0.00005300,0.00001220,-0.00001055,-0.00000400,0.00000543,0
 .00001017,-0.00000530,-0.00000222,-0.00001219,0.00000277,0.00000002,0.
 00000237,0.00000193,-0.00177093,-0.00238026,-0.00002782,-0.00001892,0.
 00033917,0.00001178,-0.00316000,0.00733417,-0.00651894,0.00031633,0.00
 009631,0.00024110,-0.00002876,0.00050424,-0.00057682,-0.00043152,0.000
 02884,-0.00032253,0.00207378,0.00045304,0.00046554,-0.00003711,-0.0000
 3535,0.00001563,-0.00209226,0.00029654,0.00234538,-0.01497873,-0.03242
 066,0.00506425,-0.00070775,-0.00042854,-0.00085523,-0.00035218,-0.0005
 6708,-0.00005998,0.00005572,-0.00002585,-0.00006929,-0.00005958,0.0000
 2195,-0.00001349,-0.00001727,-0.00001444,0.00007104,0.00018853,0.00025
 278,0.00004944,-0.00001695,-0.00003632,-0.00000597,-0.00000898,-0.0000
 0132,0.00002208,-0.00002544,0.00001391,0.00000199,-0.03626348,-0.02948
 096,0.00245401,0.05329969,-0.00001531,-0.00000333,0.00000510,-0.000065
 06,0.00004705,0.00002249,0.00001169,-0.00012301,0.00000279,-0.00013572
 ,0.00007845,-0.00001815,-0.00004038,-0.00002373,0.00000079,-0.00001262
 ,0.00006885,0.00000969,0.00003080,-0.00002462,-0.00001063,0.00004868,0
 .00001664,-0.00001077,-0.00000572,-0.00002724,0.00001238,-0.00000984,-
 0.00004603,0.00000091,0.00107712,0.00001990,-0.00014201,0.00013269,0.0
 0024918,-0.00002818,0.00331215,-0.00524191,0.00594280,-0.00004386,0.00
 023672,0.00057286,0.00084174,-0.00017886,0.00021712,0.00000060,0.00017
 957,0.00002462,-0.00170462,0.00060043,-0.00092986,-0.00024364,-0.00009
 947,0.00007949,-0.00087824,-0.00280052,0.00019360,-0.01364002,-0.01563
 170,0.00343488,-0.00023458,0.00069252,0.00048762,0.00045726,0.00022193
 ,0.00000035,-0.00008677,0.00002597,0.00007438,-0.00004608,-0.00008484,
 0.00005398,-0.00005759,-0.00002428,-0.00005053,-0.00004975,0.00036689,
 0.00020391,0.00004036,-0.00003967,-0.00007719,-0.00004490,-0.00002251,
 -0.00009128,-0.00002087,-0.00006628,0.00000378,-0.03492434,-0.21643790
 ,0.00355786,0.04499654,0.25607298,-0.00025622,-0.00030903,0.00004722,-
 0.00016033,0.00043266,0.00007293,0.00007289,-0.00072603,-0.00011914,0.
 00041481,-0.00045789,0.00009978,-0.00011114,0.00037912,0.00004228,0.00
 036010,-0.00005921,-0.00012496,0.00000461,-0.00000339,0.00000096,0.000
 00403,-0.00000078,-0.00000187,-0.00001183,-0.00000419,-0.00000081,-0.0
 0000107,-0.00000544,0.00000409,-0.00326105,-0.00338268,-0.00018090,-0.
 00028780,0.00084206,0.00016677,-0.00738276,0.01285657,-0.01048757,-0.0
 0004667,0.00061067,-0.00046613,0.00092577,0.00035577,-0.00059529,-0.00
 029563,0.00003090,-0.00016017,0.00352510,0.00075930,0.00092189,0.00000
 837,-0.00001446,-0.00000992,0.00176105,0.00179070,0.00225737,0.0023535
 3,0.00602171,0.00409103,-0.00036223,0.00060085,-0.00138637,-0.00043112
 ,0.00004501,-0.00031151,0.00002861,-0.00001473,-0.00002502,0.00005912,
 0.00005080,-0.00005712,-0.00003040,-0.00002571,0.00007060,-0.00012981,
 -0.00000418,-0.00008920,0.00005962,0.00015790,0.00006825,0.00003494,-0
 .00000518,0.00004538,-0.00004569,0.00006990,0.00003075,0.00710944,0.00
 280454,-0.03206738,-0.00539998,-0.00792892,0.03552803,-0.00029502,-0.0
 0034791,0.00005725,-0.00020523,0.00049945,0.00012864,0.00008038,-0.000
 92171,-0.00010027,0.00034445,-0.00039610,-0.00018156,-0.00017386,0.000
 40190,0.00007056,0.00040226,-0.00001765,-0.00010630,0.00002228,-0.0000
 1718,-0.00001270,0.00003567,0.00001168,-0.00002647,-0.00001586,-0.0000
 2400,-0.00000050,-0.00001141,-0.00003388,-0.00000343,-0.00201736,-0.00
 330918,-0.00014939,-0.00043574,0.00119682,0.00028435,-0.00333728,0.002
 53371,-0.00959642,-0.00011748,0.00015146,0.00036404,0.00162963,-0.0002
 1998,-0.00145496,-0.00002752,0.00007630,-0.00008369,0.00269919,0.00127
 552,0.00029313,-0.00010373,-0.00007037,0.00004259,-0.00206884,0.002072
 26,-0.00178622,-0.03145874,0.00604659,0.02426964,-0.00121449,-0.001304
 93,0.00304628,-0.00008209,0.00002022,-0.00010055,0.00001375,0.00001927
 ,-0.00003220,0.00001804,0.00003175,-0.00003831,-0.00000557,0.00000763,
 -0.00000547,-0.00008764,-0.00062018,0.00017576,0.00017503,-0.00041250,
 -0.00017055,-0.00003934,-0.00000695,0.00002850,0.00000676,-0.00000636,
 -0.00004990,-0.08477417,0.05269593,0.06994172,0.00404187,0.00131118,0.
 00149102,0.11699909,0.00021080,0.00029803,-0.00003580,0.00013767,-0.00
 039235,-0.00008609,0.00001126,0.00079998,0.00008964,-0.00046218,0.0003
 7793,0.00009832,0.00013104,-0.00034749,-0.00007381,-0.00037354,0.00000
 633,0.00009800,-0.00000013,-0.00000190,0.00000358,-0.00001603,0.000006
 36,0.00001409,0.00002147,0.00000307,0.00002184,0.00000966,0.00002639,0
 .00000735,0.00169474,0.00106762,0.00200672,0.00036186,-0.00096305,-0.0
 0031097,0.00209000,-0.00017468,0.00310805,0.00006544,-0.00008878,-0.00
 021264,-0.00187274,0.00010407,0.00023448,-0.00000761,-0.00001688,-0.00
 000441,-0.00100718,-0.00093974,-0.00018945,0.00004674,0.00001687,-0.00
 001055,-0.00066766,0.00043956,0.00183106,-0.00106247,0.00781470,0.0022
 4869,-0.00129007,-0.00019733,-0.00073733,0.00008651,-0.00016933,-0.000
 25167,0.00003421,0.00004056,-0.00000919,0.00000799,0.00000086,0.000030
 00,-0.00003058,0.00001689,0.00001199,-0.00042656,-0.00034673,-0.000098
 16,0.00057026,0.00038087,-0.00027848,-0.00016620,-0.00010466,-0.000058
 53,0.00003699,-0.00008578,0.00002060,0.05122266,-0.08481595,-0.0643459
 9,0.01129055,-0.01799908,-0.01486885,-0.06064552,0.09524372,-0.0004261
 3,-0.00051624,0.00008075,-0.00024537,0.00071227,0.00011818,0.00003836,
 -0.00128920,-0.00015063,0.00082623,-0.00073955,-0.00053240,-0.00015941
 ,0.00068320,0.00011718,0.00065146,-0.00009253,-0.00019897,0.00000443,-
 0.00000272,0.00000214,0.00000727,-0.00000898,0.00000273,-0.00005510,0.
 00000857,-0.00000081,-0.00000508,-0.00001554,0.00000120,-0.00554891,-0
 .00285768,-0.00166605,-0.00068520,0.00149687,0.00024431,-0.00829369,0.
 00262395,-0.02282200,-0.00016737,0.00000592,-0.00006064,0.00178478,-0.
 00031718,-0.00159900,-0.00001854,0.00005674,-0.00005628,0.00624848,0.0
 0100761,0.00167342,0.00002123,-0.00000721,-0.00000607,-0.00168952,0.00
 752234,-0.00448710,0.00742412,-0.01156718,-0.00292603,0.00248825,-0.00
 052397,0.00317508,-0.00065672,-0.00059273,0.00020101,0.00012266,-0.000
 02517,-0.00013180,-0.00001193,0.00017020,-0.00008886,0.00010247,0.0000
 6113,0.00006808,0.00058475,-0.00083096,-0.00026867,0.00001551,0.000394
 65,0.00028291,-0.00003867,0.00004976,0.00022648,0.00003046,0.00011650,
 -0.00002710,0.08092434,-0.06165788,-0.10597092,0.00301789,-0.00561423,
 0.00263794,-0.08629633,0.07174852,0.13215953\\0.00001157,0.00000610,-0
 .00000197,0.00000438,0.00000308,-0.00000119,-0.00000239,0.00000542,-0.
 00000026,-0.00000433,0.00000039,0.00000091,0.00000107,0.00000346,0.000
 00070,-0.00000644,0.00000010,0.00000785,0.00000442,0.00000261,0.000000
 44,0.00000115,0.00000586,-0.00000278,0.00000356,0.00000244,0.00000311,
 0.00000392,0.00000082,0.00000309,0.00000568,-0.00000230,0.00000113,0.0
 0000183,0.00000247,-0.00000341,-0.00000278,0.00000050,-0.00000377,-0.0
 0000260,0.00000163,-0.00000042,0.,0.00000441,-0.00000299,-0.00000233,0
 .00000380,-0.00000587,-0.00000248,-0.00000195,-0.00000026,-0.00000239,
 0.00000443,-0.00000619,0.00000028,-0.00000657,0.00000197,0.00000120,0.
 00000428,-0.00000260,-0.00000273,-0.00000286,-0.00000122,-0.00000271,-
 0.00000209,0.00000132,0.00000193,-0.00000313,0.00000228,0.00000194,-0.
 00000424,0.00000507,0.00000224,-0.00000646,0.00000472,0.00000041,-0.00
 000438,0.00000231,-0.00000075,-0.00000304,0.00000096,-0.00000089,-0.00
 000552,0.00000255,0.00000095,-0.00000301,0.00000349,-0.00000752,-0.000
 00165,-0.00000004,-0.00000333,-0.00000205,-0.00000493,-0.00000285,-0.0
 0000255,-0.00000398\\\@


 THEORY:  SUPPOSITION WHICH HAS SCIENTIFIC BASIS,
          BUT NOT EXPERIMENTALLY PROVEN.
 FACT:    A THEORY WHICH HAS BEEN PROVEN BY ENOUGH 
          MONEY TO PAY FOR THE EXPERIMENTS.

                          --  THE WIZARD OF ID
 Job cpu time:       0 days  0 hours  0 minutes 45.1 seconds.
 File lengths (MBytes):  RWF=    157 Int=      0 D2E=      0 Chk=      9 Scr=      1
 Normal termination of Gaussian 09 at Tue Aug 11 05:30:34 2020.
