 Entering Gaussian System, Link 0=g09
 Input=pr_claisen_PM6_toluene.com
 Output=pr_claisen_PM6_toluene.log
 Initial command:
 /apps/applications/gaussian/G09.D01/2/default/g09/l1.exe "/local/695233.1.40core-192G.q/Gau-419737.inp" -scrdir="/local/695233.1.40core-192G.q/"
 Entering Link 1 = /apps/applications/gaussian/G09.D01/2/default/g09/l1.exe PID=    419756.
  
 Copyright (c) 1988,1990,1992,1993,1995,1998,2003,2009,2013,
            Gaussian, Inc.  All Rights Reserved.
  
 This is part of the Gaussian(R) 09 program.  It is based on
 the Gaussian(R) 03 system (copyright 2003, Gaussian, Inc.),
 the Gaussian(R) 98 system (copyright 1998, Gaussian, Inc.),
 the Gaussian(R) 94 system (copyright 1995, Gaussian, Inc.),
 the Gaussian 92(TM) system (copyright 1992, Gaussian, Inc.),
 the Gaussian 90(TM) system (copyright 1990, Gaussian, Inc.),
 the Gaussian 88(TM) system (copyright 1988, Gaussian, Inc.),
 the Gaussian 86(TM) system (copyright 1986, Carnegie Mellon
 University), and the Gaussian 82(TM) system (copyright 1983,
 Carnegie Mellon University). Gaussian is a federally registered
 trademark of Gaussian, Inc.
  
 This software contains proprietary and confidential information,
 including trade secrets, belonging to Gaussian, Inc.
  
 This software is provided under written license and may be
 used, copied, transmitted, or stored only in accord with that
 written license.
  
 The following legend is applicable only to US Government
 contracts under FAR:
  
                    RESTRICTED RIGHTS LEGEND
  
 Use, reproduction and disclosure by the US Government is
 subject to restrictions as set forth in subparagraphs (a)
 and (c) of the Commercial Computer Software - Restricted
 Rights clause in FAR 52.227-19.
  
 Gaussian, Inc.
 340 Quinnipiac St., Bldg. 40, Wallingford CT 06492
  
  
 ---------------------------------------------------------------
 Warning -- This program may not be used in any manner that
 competes with the business of Gaussian, Inc. or will provide
 assistance to any competitor of Gaussian, Inc.  The licensee
 of this program is prohibited from giving any competitor of
 Gaussian, Inc. access to this program.  By using this program,
 the user acknowledges that Gaussian, Inc. is engaged in the
 business of creating and licensing software in the field of
 computational chemistry and represents and warrants to the
 licensee that it is not a competitor of Gaussian, Inc. and that
 it will not use this program in any manner prohibited above.
 ---------------------------------------------------------------
  

 Cite this work as:
 Gaussian 09, Revision D.01,
 M. J. Frisch, G. W. Trucks, H. B. Schlegel, G. E. Scuseria, 
 M. A. Robb, J. R. Cheeseman, G. Scalmani, V. Barone, B. Mennucci, 
 G. A. Petersson, H. Nakatsuji, M. Caricato, X. Li, H. P. Hratchian, 
 A. F. Izmaylov, J. Bloino, G. Zheng, J. L. Sonnenberg, M. Hada, 
 M. Ehara, K. Toyota, R. Fukuda, J. Hasegawa, M. Ishida, T. Nakajima, 
 Y. Honda, O. Kitao, H. Nakai, T. Vreven, J. A. Montgomery, Jr., 
 J. E. Peralta, F. Ogliaro, M. Bearpark, J. J. Heyd, E. Brothers, 
 K. N. Kudin, V. N. Staroverov, T. Keith, R. Kobayashi, J. Normand, 
 K. Raghavachari, A. Rendell, J. C. Burant, S. S. Iyengar, J. Tomasi, 
 M. Cossi, N. Rega, J. M. Millam, M. Klene, J. E. Knox, J. B. Cross, 
 V. Bakken, C. Adamo, J. Jaramillo, R. Gomperts, R. E. Stratmann, 
 O. Yazyev, A. J. Austin, R. Cammi, C. Pomelli, J. W. Ochterski, 
 R. L. Martin, K. Morokuma, V. G. Zakrzewski, G. A. Voth, 
 P. Salvador, J. J. Dannenberg, S. Dapprich, A. D. Daniels, 
 O. Farkas, J. B. Foresman, J. V. Ortiz, J. Cioslowski, 
 and D. J. Fox, Gaussian, Inc., Wallingford CT, 2013.
 
 ******************************************
 Gaussian 09:  ES64L-G09RevD.01 24-Apr-2013
                10-Aug-2020 
 ******************************************
 %nprocshared=4
 Will use up to    4 processors via shared memory.
 %chk=pr_claisen_PM6_toluene.chk
 ----------------------------------------------------------------------
 # opt freq pm6 scrf=(cpcm,solvent=toluene) geom=connectivity empirical
 dispersion=gd3
 ----------------------------------------------------------------------
 1/14=-1,18=20,19=15,26=1,38=1,57=2/1,3;
 2/9=110,12=2,17=6,18=5,40=1/2;
 3/5=2,16=1,25=1,41=3900000,70=2101,71=1,72=13,124=31/1,2,3;
 4/35=1/1;
 5/5=2,35=1,38=5,53=13/2;
 6/7=2,8=2,9=2,10=2,28=1/1;
 7//1,2,3,16;
 1/14=-1,18=20,19=15,26=1/3(2);
 2/9=110/2;
 99//99;
 2/9=110/2;
 3/5=2,16=1,25=1,41=3900000,70=2105,71=1,72=13,124=31,135=20/1,2,3;
 4/5=5,16=3,35=1/1;
 5/5=2,35=1,38=5,53=13/2;
 7//1,2,3,16;
 1/14=-1,18=20,19=15,26=1/3(-5);
 2/9=110/2;
 6/7=2,8=2,9=2,10=2,19=2,28=1/1;
 99/9=1/99;
 -------------------
 Title Card Required
 -------------------
 Symbolic Z-matrix:
 Charge =  0 Multiplicity = 1
 C                    -3.84285  -0.28774   0.98994 
 C                    -2.46436  -0.06086   1.10449 
 C                    -1.92465   1.17331   0.71808 
 C                    -2.76219   2.18803   0.25962 
 C                    -4.1368    1.95756   0.11735 
 C                    -4.67818   0.71826   0.4848 
 H                    -4.25692  -1.22892   1.28594 
 H                    -1.82451  -0.83033   1.48318 
 H                    -4.77246   2.72734  -0.26771 
 H                    -5.72824   0.54063   0.38125 
 C                    -2.16247   3.55363  -0.09411 
 C                    -0.40358   1.40447   0.77168 
 C                    -0.71918   3.89403   0.32401 
 C                     0.14176   2.61659   0.47311 
 H                     1.20172   2.68987   0.34656 
 O                    -2.85357   4.40222  -0.71529 
 Cl                    0.65484   0.06893   1.21181 
 C                     0.12155   6.6257    0.47783 
 C                     0.39062   5.48406   1.15668 
 H                     1.40502   5.18831   1.32527 
 C                     1.27577   7.49735  -0.05094 
 H                     1.54976   8.21597   0.69297 
 H                     2.1181    6.87652  -0.27446 
 H                     0.96142   8.00518  -0.93874 
 C                    -1.33842   7.05136   0.23518 
 H                    -1.95779   6.18116   0.17165 
 H                    -1.66989   7.6667    1.04536 
 H                    -1.40199   7.60198  -0.68007 
 C                    -0.7636    4.61242   1.68545 
 H                    -0.05225   4.38023   2.45028 
 H                    -1.38428   5.47712   1.79477 
 H                    -0.2785    4.53627  -0.40964 
 

 GradGradGradGradGradGradGradGradGradGradGradGradGradGradGradGradGradGrad
 Berny optimization.
 Initialization pass.
                           ----------------------------
                           !    Initial Parameters    !
                           ! (Angstroms and Degrees)  !
 --------------------------                            --------------------------
 ! Name  Definition              Value          Derivative Info.                !
 --------------------------------------------------------------------------------
 ! R1    R(1,2)                  1.4017         estimate D2E/DX2                !
 ! R2    R(1,6)                  1.4018         estimate D2E/DX2                !
 ! R3    R(1,7)                  1.07           estimate D2E/DX2                !
 ! R4    R(2,3)                  1.4014         estimate D2E/DX2                !
 ! R5    R(2,8)                  1.07           estimate D2E/DX2                !
 ! R6    R(3,4)                  1.3933         estimate D2E/DX2                !
 ! R7    R(3,12)                 1.5395         estimate D2E/DX2                !
 ! R8    R(4,5)                  1.401          estimate D2E/DX2                !
 ! R9    R(4,11)                 1.5329         estimate D2E/DX2                !
 ! R10   R(5,6)                  1.4014         estimate D2E/DX2                !
 ! R11   R(5,9)                  1.07           estimate D2E/DX2                !
 ! R12   R(6,10)                 1.07           estimate D2E/DX2                !
 ! R13   R(11,13)                1.5407         estimate D2E/DX2                !
 ! R14   R(11,16)                1.2584         estimate D2E/DX2                !
 ! R15   R(12,14)                1.3623         estimate D2E/DX2                !
 ! R16   R(12,17)                1.76           estimate D2E/DX2                !
 ! R17   R(13,14)                1.5477         estimate D2E/DX2                !
 ! R18   R(13,29)                1.54           estimate D2E/DX2                !
 ! R19   R(13,32)                1.07           estimate D2E/DX2                !
 ! R20   R(14,15)                1.07           estimate D2E/DX2                !
 ! R21   R(18,19)                1.3552         estimate D2E/DX2                !
 ! R22   R(18,21)                1.54           estimate D2E/DX2                !
 ! R23   R(18,25)                1.54           estimate D2E/DX2                !
 ! R24   R(19,20)                1.07           estimate D2E/DX2                !
 ! R25   R(19,29)                1.54           estimate D2E/DX2                !
 ! R26   R(21,22)                1.07           estimate D2E/DX2                !
 ! R27   R(21,23)                1.07           estimate D2E/DX2                !
 ! R28   R(21,24)                1.07           estimate D2E/DX2                !
 ! R29   R(25,26)                1.07           estimate D2E/DX2                !
 ! R30   R(25,27)                1.07           estimate D2E/DX2                !
 ! R31   R(25,28)                1.07           estimate D2E/DX2                !
 ! R32   R(29,30)                1.07           estimate D2E/DX2                !
 ! R33   R(29,31)                1.07           estimate D2E/DX2                !
 ! A1    A(2,1,6)              119.9554         estimate D2E/DX2                !
 ! A2    A(2,1,7)              120.0222         estimate D2E/DX2                !
 ! A3    A(6,1,7)              120.0224         estimate D2E/DX2                !
 ! A4    A(1,2,3)              119.9182         estimate D2E/DX2                !
 ! A5    A(1,2,8)              120.0401         estimate D2E/DX2                !
 ! A6    A(3,2,8)              120.0413         estimate D2E/DX2                !
 ! A7    A(2,3,4)              120.0408         estimate D2E/DX2                !
 ! A8    A(2,3,12)             120.21           estimate D2E/DX2                !
 ! A9    A(4,3,12)             119.7382         estimate D2E/DX2                !
 ! A10   A(3,4,5)              120.2245         estimate D2E/DX2                !
 ! A11   A(3,4,11)             119.3118         estimate D2E/DX2                !
 ! A12   A(5,4,11)             120.4627         estimate D2E/DX2                !
 ! A13   A(4,5,6)              119.8588         estimate D2E/DX2                !
 ! A14   A(4,5,9)              120.0709         estimate D2E/DX2                !
 ! A15   A(6,5,9)              120.07           estimate D2E/DX2                !
 ! A16   A(1,6,5)              119.9286         estimate D2E/DX2                !
 ! A17   A(1,6,10)             120.0358         estimate D2E/DX2                !
 ! A18   A(5,6,10)             120.0356         estimate D2E/DX2                !
 ! A19   A(4,11,13)            120.0466         estimate D2E/DX2                !
 ! A20   A(4,11,16)            119.9868         estimate D2E/DX2                !
 ! A21   A(13,11,16)           119.9631         estimate D2E/DX2                !
 ! A22   A(3,12,14)            121.4332         estimate D2E/DX2                !
 ! A23   A(3,12,17)            119.2717         estimate D2E/DX2                !
 ! A24   A(14,12,17)           119.2919         estimate D2E/DX2                !
 ! A25   A(11,13,14)           111.4012         estimate D2E/DX2                !
 ! A26   A(11,13,29)           108.4182         estimate D2E/DX2                !
 ! A27   A(11,13,32)           109.4111         estimate D2E/DX2                !
 ! A28   A(14,13,29)           108.416          estimate D2E/DX2                !
 ! A29   A(14,13,32)           109.4132         estimate D2E/DX2                !
 ! A30   A(29,13,32)           109.7571         estimate D2E/DX2                !
 ! A31   A(12,14,13)           122.1979         estimate D2E/DX2                !
 ! A32   A(12,14,15)           118.9091         estimate D2E/DX2                !
 ! A33   A(13,14,15)           118.8904         estimate D2E/DX2                !
 ! A34   A(19,18,21)           120.0            estimate D2E/DX2                !
 ! A35   A(19,18,25)           120.0            estimate D2E/DX2                !
 ! A36   A(21,18,25)           120.0            estimate D2E/DX2                !
 ! A37   A(18,19,20)           120.0            estimate D2E/DX2                !
 ! A38   A(18,19,29)           120.0            estimate D2E/DX2                !
 ! A39   A(20,19,29)           120.0            estimate D2E/DX2                !
 ! A40   A(18,21,22)           109.4712         estimate D2E/DX2                !
 ! A41   A(18,21,23)           109.4712         estimate D2E/DX2                !
 ! A42   A(18,21,24)           109.4712         estimate D2E/DX2                !
 ! A43   A(22,21,23)           109.4712         estimate D2E/DX2                !
 ! A44   A(22,21,24)           109.4712         estimate D2E/DX2                !
 ! A45   A(23,21,24)           109.4712         estimate D2E/DX2                !
 ! A46   A(18,25,26)           109.4712         estimate D2E/DX2                !
 ! A47   A(18,25,27)           109.4712         estimate D2E/DX2                !
 ! A48   A(18,25,28)           109.4712         estimate D2E/DX2                !
 ! A49   A(26,25,27)           109.4712         estimate D2E/DX2                !
 ! A50   A(26,25,28)           109.4712         estimate D2E/DX2                !
 ! A51   A(27,25,28)           109.4712         estimate D2E/DX2                !
 ! A52   A(13,29,19)            86.4948         estimate D2E/DX2                !
 ! A53   A(13,29,30)           120.7646         estimate D2E/DX2                !
 ! A54   A(13,29,31)           118.9496         estimate D2E/DX2                !
 ! A55   A(19,29,30)            82.5292         estimate D2E/DX2                !
 ! A56   A(19,29,31)            90.7123         estimate D2E/DX2                !
 ! A57   A(30,29,31)           119.2077         estimate D2E/DX2                !
 ! D1    D(6,1,2,3)              0.2264         estimate D2E/DX2                !
 ! D2    D(6,1,2,8)           -179.5527         estimate D2E/DX2                !
 ! D3    D(7,1,2,3)           -179.9027         estimate D2E/DX2                !
 ! D4    D(7,1,2,8)              0.3182         estimate D2E/DX2                !
 ! D5    D(2,1,6,5)             -1.1294         estimate D2E/DX2                !
 ! D6    D(2,1,6,10)           178.962          estimate D2E/DX2                !
 ! D7    D(7,1,6,5)            178.9997         estimate D2E/DX2                !
 ! D8    D(7,1,6,10)            -0.9089         estimate D2E/DX2                !
 ! D9    D(1,2,3,4)              1.9874         estimate D2E/DX2                !
 ! D10   D(1,2,3,12)          -176.8022         estimate D2E/DX2                !
 ! D11   D(8,2,3,4)           -178.2334         estimate D2E/DX2                !
 ! D12   D(8,2,3,12)             2.9769         estimate D2E/DX2                !
 ! D13   D(2,3,4,5)             -3.2997         estimate D2E/DX2                !
 ! D14   D(2,3,4,11)           177.0494         estimate D2E/DX2                !
 ! D15   D(12,3,4,5)           175.4957         estimate D2E/DX2                !
 ! D16   D(12,3,4,11)           -4.1552         estimate D2E/DX2                !
 ! D17   D(2,3,12,14)         -176.3105         estimate D2E/DX2                !
 ! D18   D(2,3,12,17)            4.344          estimate D2E/DX2                !
 ! D19   D(4,3,12,14)            4.8962         estimate D2E/DX2                !
 ! D20   D(4,3,12,17)         -174.4493         estimate D2E/DX2                !
 ! D21   D(3,4,5,6)              2.3893         estimate D2E/DX2                !
 ! D22   D(3,4,5,9)           -177.8313         estimate D2E/DX2                !
 ! D23   D(11,4,5,6)          -177.9639         estimate D2E/DX2                !
 ! D24   D(11,4,5,9)             1.8156         estimate D2E/DX2                !
 ! D25   D(3,4,11,13)          -12.594          estimate D2E/DX2                !
 ! D26   D(3,4,11,16)          168.0833         estimate D2E/DX2                !
 ! D27   D(5,4,11,13)          167.756          estimate D2E/DX2                !
 ! D28   D(5,4,11,16)          -11.5667         estimate D2E/DX2                !
 ! D29   D(4,5,6,1)             -0.1693         estimate D2E/DX2                !
 ! D30   D(4,5,6,10)           179.7392         estimate D2E/DX2                !
 ! D31   D(9,5,6,1)           -179.9488         estimate D2E/DX2                !
 ! D32   D(9,5,6,10)            -0.0402         estimate D2E/DX2                !
 ! D33   D(4,11,13,14)          26.281          estimate D2E/DX2                !
 ! D34   D(4,11,13,29)         -92.9376         estimate D2E/DX2                !
 ! D35   D(4,11,13,32)         147.3861         estimate D2E/DX2                !
 ! D36   D(16,11,13,14)       -154.3961         estimate D2E/DX2                !
 ! D37   D(16,11,13,29)         86.3853         estimate D2E/DX2                !
 ! D38   D(16,11,13,32)        -33.291          estimate D2E/DX2                !
 ! D39   D(3,12,14,13)          11.7374         estimate D2E/DX2                !
 ! D40   D(3,12,14,15)        -168.8553         estimate D2E/DX2                !
 ! D41   D(17,12,14,13)       -168.9171         estimate D2E/DX2                !
 ! D42   D(17,12,14,15)         10.4901         estimate D2E/DX2                !
 ! D43   D(11,13,14,12)        -26.2623         estimate D2E/DX2                !
 ! D44   D(11,13,14,15)        154.3303         estimate D2E/DX2                !
 ! D45   D(29,13,14,12)         92.9576         estimate D2E/DX2                !
 ! D46   D(29,13,14,15)        -86.4498         estimate D2E/DX2                !
 ! D47   D(32,13,14,12)       -147.3662         estimate D2E/DX2                !
 ! D48   D(32,13,14,15)         33.2264         estimate D2E/DX2                !
 ! D49   D(11,13,29,19)       -142.6976         estimate D2E/DX2                !
 ! D50   D(11,13,29,30)        138.1421         estimate D2E/DX2                !
 ! D51   D(11,13,29,31)        -53.8236         estimate D2E/DX2                !
 ! D52   D(14,13,29,19)         96.2222         estimate D2E/DX2                !
 ! D53   D(14,13,29,30)         17.0619         estimate D2E/DX2                !
 ! D54   D(14,13,29,31)       -174.9037         estimate D2E/DX2                !
 ! D55   D(32,13,29,19)        -23.2383         estimate D2E/DX2                !
 ! D56   D(32,13,29,30)       -102.3986         estimate D2E/DX2                !
 ! D57   D(32,13,29,31)         65.6357         estimate D2E/DX2                !
 ! D58   D(21,18,19,20)         -0.0001         estimate D2E/DX2                !
 ! D59   D(21,18,19,29)        179.9999         estimate D2E/DX2                !
 ! D60   D(25,18,19,20)        179.9999         estimate D2E/DX2                !
 ! D61   D(25,18,19,29)         -0.0001         estimate D2E/DX2                !
 ! D62   D(19,18,21,22)        -90.0            estimate D2E/DX2                !
 ! D63   D(19,18,21,23)         30.0            estimate D2E/DX2                !
 ! D64   D(19,18,21,24)        150.0            estimate D2E/DX2                !
 ! D65   D(25,18,21,22)         90.0            estimate D2E/DX2                !
 ! D66   D(25,18,21,23)       -150.0            estimate D2E/DX2                !
 ! D67   D(25,18,21,24)        -30.0            estimate D2E/DX2                !
 ! D68   D(19,18,25,26)        -30.0            estimate D2E/DX2                !
 ! D69   D(19,18,25,27)         90.0            estimate D2E/DX2                !
 ! D70   D(19,18,25,28)       -150.0            estimate D2E/DX2                !
 ! D71   D(21,18,25,26)        150.0            estimate D2E/DX2                !
 ! D72   D(21,18,25,27)        -90.0            estimate D2E/DX2                !
 ! D73   D(21,18,25,28)         30.0            estimate D2E/DX2                !
 ! D74   D(18,19,29,13)         89.1002         estimate D2E/DX2                !
 ! D75   D(18,19,29,30)       -149.2389         estimate D2E/DX2                !
 ! D76   D(18,19,29,31)        -29.8613         estimate D2E/DX2                !
 ! D77   D(20,19,29,13)        -90.8998         estimate D2E/DX2                !
 ! D78   D(20,19,29,30)         30.7611         estimate D2E/DX2                !
 ! D79   D(20,19,29,31)        150.1387         estimate D2E/DX2                !
 --------------------------------------------------------------------------------
 Trust Radius=3.00D-01 FncErr=1.00D-07 GrdErr=1.00D-07
 Number of steps in this run=    179 maximum allowed number of steps=    192.
 GradGradGradGradGradGradGradGradGradGradGradGradGradGradGradGradGradGrad

                          Input orientation:                          
 ---------------------------------------------------------------------
 Center     Atomic      Atomic             Coordinates (Angstroms)
 Number     Number       Type             X           Y           Z
 ---------------------------------------------------------------------
      1          6           0       -3.842846   -0.287738    0.989937
      2          6           0       -2.464361   -0.060863    1.104488
      3          6           0       -1.924653    1.173312    0.718083
      4          6           0       -2.762194    2.188028    0.259623
      5          6           0       -4.136801    1.957560    0.117354
      6          6           0       -4.678178    0.718259    0.484797
      7          1           0       -4.256924   -1.228918    1.285943
      8          1           0       -1.824513   -0.830333    1.483184
      9          1           0       -4.772464    2.727339   -0.267710
     10          1           0       -5.728238    0.540630    0.381247
     11          6           0       -2.162472    3.553634   -0.094112
     12          6           0       -0.403577    1.404466    0.771680
     13          6           0       -0.719176    3.894026    0.324006
     14          6           0        0.141763    2.616589    0.473106
     15          1           0        1.201722    2.689872    0.346555
     16          8           0       -2.853573    4.402218   -0.715285
     17         17           0        0.654836    0.068934    1.211813
     18          6           0        0.121552    6.625699    0.477829
     19          6           0        0.390617    5.484063    1.156680
     20          1           0        1.405016    5.188309    1.325273
     21          6           0        1.275774    7.497348   -0.050944
     22          1           0        1.549760    8.215972    0.692973
     23          1           0        2.118098    6.876516   -0.274455
     24          1           0        0.961422    8.005184   -0.938742
     25          6           0       -1.338424    7.051363    0.235179
     26          1           0       -1.957793    6.181164    0.171648
     27          1           0       -1.669890    7.666695    1.045362
     28          1           0       -1.401989    7.601983   -0.680068
     29          6           0       -0.763605    4.612415    1.685454
     30          1           0       -0.052252    4.380226    2.450285
     31          1           0       -1.384280    5.477118    1.794772
     32          1           0       -0.278502    4.536271   -0.409635
 ---------------------------------------------------------------------
                    Distance matrix (angstroms):
                    1          2          3          4          5
     1  C    0.000000
     2  C    1.401719   0.000000
     3  C    2.426528   1.401350   0.000000
     4  C    2.798318   2.420747   1.393309   0.000000
     5  C    2.426762   2.800986   2.422709   1.401036   0.000000
     6  C    1.401775   2.427351   2.800606   2.425267   1.401417
     7  H    1.070000   2.147221   3.395977   3.868213   3.396126
     8  H    2.147410   1.070000   2.147091   3.389226   3.870984
     9  H    3.396550   3.870960   3.390695   2.147119   1.070000
    10  H    2.147416   3.396728   3.870530   3.395015   2.147091
    11  C    4.330699   3.819996   2.526292   1.532865   2.547576
    12  C    3.839240   2.550447   1.539473   2.537567   3.830277
    13  C    5.261932   4.392718   3.001792   2.662423   3.933544
    14  C    4.957755   3.789364   2.532417   2.943162   4.343615
    15  H    5.893027   4.645554   3.494597   3.996503   5.393389
    16  O    5.087449   4.835510   3.652844   2.421040   2.883803
    17  Cl   4.517254   3.123741   2.849067   4.131987   5.265409
    18  C    7.985882   7.196511   5.828653   5.296841   6.328905
    19  C    7.159867   6.236973   4.912781   4.648524   5.832147
    20  H    7.592075   6.524924   5.251245   5.244324   6.527522
    21  C    9.375034   8.511768   7.129346   6.677613   7.746841
    22  H   10.073801   9.208068   7.853104   7.424072   8.475614
    23  H    9.405215   8.427790   7.060843   6.788549   7.967019
    24  H    9.776162   8.998439   7.599275   7.010043   7.980036
    25  C    7.791289   7.253082   5.926917   5.067518   5.813056
    26  H    6.787467   6.331643   5.037684   4.074301   4.752878
    27  H    8.246079   7.768516   6.506615   5.641481   6.288169
    28  H    8.425817   7.939300   6.599683   5.660749   6.322546
    29  C    5.828977   5.006958   3.756497   3.450363   4.570082
    30  H    6.187981   5.229982   4.097646   4.116858   5.291069
    31  H    6.318692   5.684392   4.469229   3.882454   4.772567
    32  H    6.159091   5.310761   3.910377   3.482940   4.670539
                    6          7          8          9         10
     6  C    0.000000
     7  H    2.147274   0.000000
     8  H    3.396810   2.472731   0.000000
     9  H    2.147454   4.281540   4.940958   0.000000
    10  H    1.070000   2.472759   4.281690   2.473124   0.000000
    11  C    3.834483   5.400378   4.671322   2.743165   4.692424
    12  C    4.338824   4.695472   2.742193   4.681612   5.408388
    13  C    5.077898   6.299646   4.988490   4.259158   6.028204
    14  C    5.180311   5.898904   4.094847   4.970985   6.226953
    15  H    6.203192   6.784997   4.779316   6.005799   7.255673
    16  O    4.282632   6.138730   5.768173   2.586057   4.937403
    17  Cl   5.421366   5.080876   2.651319   6.221871   6.454143
    18  C    7.611524   9.028793   7.771121   6.301145   8.441412
    19  C    6.989778   8.165810   6.699627   6.023771   7.904379
    20  H    7.595590   8.558032   6.832192   6.837779   8.565945
    21  C    9.038396  10.418528   9.017516   7.705917   9.881239
    22  H    9.749167  11.102934   9.687403   8.427249  10.581933
    23  H    9.202714  10.429468   8.833402   8.043354  10.106353
    24  H    9.323670  10.837389   9.575673   7.821981  10.110069
    25  C    7.164110   8.842217   7.994681   5.544611   7.853753
    26  H    6.110801   7.838174   7.134351   4.477088   6.787916
    27  H    7.592417   9.267284   8.509705   5.978910   8.227517
    28  H    7.712067   9.486868   8.715626   5.940732   8.348983
    29  C    5.650656   6.817922   5.548869   4.841416   6.551944
    30  H    6.218708   7.106156   5.588033   5.692093   7.158228
    31  H    5.934015   7.313133   6.330469   4.826480   6.725841
    32  H    5.893587   7.206957   5.896893   4.846449   6.803694
                   11         12         13         14         15
    11  C    0.000000
    12  C    2.908992   0.000000
    13  C    1.540712   2.549102   0.000000
    14  C    2.551331   1.362272   1.547672   0.000000
    15  H    3.501154   2.099997   2.267233   1.070000   0.000000
    16  O    1.258400   4.147296   2.427764   3.684125   4.528250
    17  Cl   4.667526   1.760000   4.160221   2.701755   2.813729
    18  C    3.870590   5.255795   2.862258   4.009164   4.083471
    19  C    3.436467   4.173977   2.110262   2.958312   3.020216
    20  H    4.172983   4.230242   2.681398   2.989271   2.690986
    21  C    5.232235   6.373394   4.135740   5.038097   4.824451
    22  H    6.011453   7.086490   4.895245   5.777879   5.547875
    23  H    5.421932   6.115274   4.159750   4.755178   4.330518
    24  H    5.503491   6.954009   4.617420   5.630463   5.473781
    25  C    3.608545   5.748845   3.218717   4.681322   5.048500
    26  H    2.648855   5.058900   2.605453   4.147915   4.711926
    27  H    4.296314   6.394839   3.956924   5.395659   5.788200
    28  H    4.160626   6.443106   3.901711   5.344823   5.653504
    29  C    2.498941   3.354928   1.540000   2.504556   3.057995
    30  H    3.407380   3.434573   2.280842   2.656557   2.975807
    31  H    2.805933   4.312191   2.260907   3.501176   4.068597
    32  H    2.148132   3.349530   1.070000   2.154305   2.484367
                   16         17         18         19         20
    16  O    0.000000
    17  Cl   5.899151   0.000000
    18  C    3.901122   6.619236   0.000000
    19  C    3.898642   5.421852   1.355200   0.000000
    20  H    4.787212   5.175292   2.105120   1.070000   0.000000
    21  C    5.203141   7.560520   1.540000   2.509019   2.691159
    22  H    5.993100   8.212449   2.148263   3.003658   3.096368
    23  H    5.570815   7.119923   2.148263   2.640315   2.432624
    24  H    5.252188   8.228180   2.148263   3.327561   3.641061
    25  C    3.196408   7.326746   1.540000   2.509019   3.490808
    26  H    2.180303   6.728084   2.148263   2.640315   3.691218
    27  H    3.893301   7.947203   2.148263   3.003658   3.959267
    28  H    3.513806   8.034710   2.148263   3.327561   4.210284
    29  C    3.189937   4.783255   2.509019   1.540000   2.272510
    30  H    4.227140   4.541038   2.993817   1.757271   2.010542
    31  H    3.100745   5.809156   2.306753   1.886125   2.843240
    32  H    2.596609   4.843275   2.305070   1.949198   2.503856
                   21         22         23         24         25
    21  C    0.000000
    22  H    1.070000   0.000000
    23  H    1.070000   1.747303   0.000000
    24  H    1.070000   1.747303   1.747303   0.000000
    25  C    2.667358   3.147618   3.498263   2.752664   0.000000
    26  H    3.498263   4.088417   4.158774   3.616882   1.070000
    27  H    3.147618   3.285123   4.088417   3.312861   1.070000
    28  H    2.752664   3.312861   3.616882   2.411472   1.070000
    29  C    3.936621   4.395714   4.155912   4.623095   2.895200
    30  H    4.211443   4.513041   4.285568   5.064915   3.700798
    31  H    3.816265   4.162196   4.301937   4.400629   2.216457
    32  H    3.363393   4.254232   3.352419   3.721657   2.804444
                   26         27         28         29         30
    26  H    0.000000
    27  H    1.747303   0.000000
    28  H    1.747303   1.747303   0.000000
    29  C    2.485692   3.249569   3.865326   0.000000
    30  H    3.473708   3.923193   4.690482   1.070000   0.000000
    31  H    1.859873   2.331831   3.261932   1.070000   1.845852
    32  H    2.421483   3.721899   3.276270   2.151865   2.873096
                   31         32
    31  H    0.000000
    32  H    2.639574   0.000000
 Stoichiometry    C15H15ClO
 Framework group  C1[X(C15H15ClO)]
 Deg. of freedom    90
 Full point group                 C1      NOp   1
 Largest Abelian subgroup         C1      NOp   1
 Largest concise Abelian subgroup C1      NOp   1
                         Standard orientation:                         
 ---------------------------------------------------------------------
 Center     Atomic      Atomic             Coordinates (Angstroms)
 Number     Number       Type             X           Y           Z
 ---------------------------------------------------------------------
      1          6           0        4.056467   -1.084620    0.360846
      2          6           0        3.343859    0.118768    0.266713
      3          6           0        1.973183    0.098477   -0.024176
      4          6           0        1.310849   -1.117563   -0.178674
      5          6           0        2.023352   -2.322093   -0.112735
      6          6           0        3.398029   -2.305597    0.159228
      7          1           0        5.102764   -1.071140    0.584410
      8          1           0        3.846595    1.051866    0.413290
      9          1           0        1.518321   -3.252842   -0.266195
     10          1           0        3.944136   -3.224088    0.214366
     11          6           0       -0.201420   -1.121899   -0.429069
     12          6           0        1.199390    1.417450   -0.201752
     13          6           0       -1.021306    0.166046   -0.222235
     14          6           0       -0.146628    1.428781   -0.411252
     15          1           0       -0.616343    2.343423   -0.707393
     16          8           0       -0.775886   -2.181234   -0.791516
     17         17           0        2.075650    2.942926   -0.149862
     18          6           0       -3.851347    0.014209    0.178186
     19          6           0       -2.844980    0.802887    0.627384
     20          1           0       -2.934825    1.867728    0.573139
     21          6           0       -5.124257    0.650558   -0.410338
     22          1           0       -5.837681    0.809370    0.371139
     23          1           0       -4.877543    1.587737   -0.863910
     24          1           0       -5.541972   -0.003293   -1.147150
     25          6           0       -3.722036   -1.518365    0.256256
     26          1           0       -2.691290   -1.793909    0.175400
     27          1           0       -4.110703   -1.861880    1.192117
     28          1           0       -4.274269   -1.964146   -0.544505
     29          6           0       -1.572071    0.166538    1.215909
     30          1           0       -1.565565    1.060293    1.804177
     31          1           0       -2.134964   -0.677803    1.555231
     32          1           0       -1.832144    0.187345   -0.920080
 ---------------------------------------------------------------------
 Rotational constants (GHZ):      0.6775397      0.2762408      0.2053254
 Standard basis: VSTO-6G (5D, 7F)
 There are    89 symmetry adapted cartesian basis functions of A   symmetry.
 There are    88 symmetry adapted basis functions of A   symmetry.
    88 basis functions,   534 primitive gaussians,    89 cartesian basis functions
    44 alpha electrons       44 beta electrons
       nuclear repulsion energy       634.4328928251 Hartrees.
 Integral buffers will be    131072 words long.
 Regular integral format.
 Two-electron integral symmetry is turned off.
 Nuclear repulsion after empirical dispersion term =      634.4231467084 Hartrees.
 ------------------------------------------------------------------------------
 Polarizable Continuum Model (PCM)
 =================================
 Model                : C-PCM.
 Atomic radii         : UFF (Universal Force Field).
 Polarization charges : Total charges.
 Charge compensation  : None.
 Solution method      : On-the-fly selection.
 Cavity type          : Scaled VdW (van der Waals Surface) (Alpha=1.100).
 Cavity algorithm     : GePol (No added spheres)
                        Default sphere list used, NSphG=   32.
                        Lebedev-Laikov grids with approx.  5.0 points / Ang**2.
                        Smoothing algorithm: Karplus/York (Gamma=1.0000).
                        Polarization charges: spherical gaussians, with
                                              point-specific exponents (IZeta= 3).
                        Self-potential: point-specific (ISelfS= 7).
                        Self-field    : sphere-specific E.n sum rule (ISelfD= 2).
 1st derivatives      : Analytical E(r).r(x)/FMM algorithm (CHGder, D1EAlg=3).
                        Cavity 1st derivative terms included.
 Solvent              : Toluene, Eps=   2.374100 Eps(inf)=   2.238315
 ------------------------------------------------------------------------------
 Do NDO integrals.
 One-electron integrals computed using PRISM.
 PrsmSu:  requested number of processors reduced to:   2 ShMem   1 Linda.
 NBasis=    88 RedAO= F EigKep=  0.00D+00  NBF=    88
 NBsUse=    88 1.00D-04 EigRej=  0.00D+00 NBFU=    88
 Nonelectrostatic core Hamiltonian diagonalized for initial guess.
 Overlap will be assumed to be unity.
 Keep J ints in memory in canonical form, NReq=10043967.
 Requested convergence on RMS density matrix=1.00D-08 within 128 cycles.
 Requested convergence on MAX density matrix=1.00D-06.
 Requested convergence on             energy=1.00D-06.
 No special actions if energy rises.
 Inv3:  Mode=1 IEnd=    16483008.
 Iteration    1 A*A^-1 deviation from unit magnitude is 6.88D-15 for   2344.
 Iteration    1 A*A^-1 deviation from orthogonality  is 2.69D-15 for   1248   1112.
 Iteration    1 A^-1*A deviation from unit magnitude is 6.77D-15 for   2344.
 Iteration    1 A^-1*A deviation from orthogonality  is 1.76D-15 for   1248   1112.
 Error on total polarization charges = -0.00007
 SCF Done:  E(RPM6D3) =  0.771610518318E-01 A.U. after   21 cycles
            NFock= 20  Conv=0.89D-08     -V/T= 1.0014

 **********************************************************************

            Population analysis using the SCF density.

 **********************************************************************

 Orbital symmetries:
       Occupied  (A) (A) (A) (A) (A) (A) (A) (A) (A) (A) (A) (A)
                 (A) (A) (A) (A) (A) (A) (A) (A) (A) (A) (A) (A)
                 (A) (A) (A) (A) (A) (A) (A) (A) (A) (A) (A) (A)
                 (A) (A) (A) (A) (A) (A) (A) (A)
       Virtual   (A) (A) (A) (A) (A) (A) (A) (A) (A) (A) (A) (A)
                 (A) (A) (A) (A) (A) (A) (A) (A) (A) (A) (A) (A)
                 (A) (A) (A) (A) (A) (A) (A) (A) (A) (A) (A) (A)
                 (A) (A) (A) (A) (A) (A) (A) (A)
 The electronic state is 1-A.
 Alpha  occ. eigenvalues --   -1.15219  -1.11897  -1.11861  -1.05488  -1.00632
 Alpha  occ. eigenvalues --   -0.98549  -0.96930  -0.94456  -0.92353  -0.89266
 Alpha  occ. eigenvalues --   -0.82349  -0.81278  -0.80335  -0.76231  -0.67967
 Alpha  occ. eigenvalues --   -0.66924  -0.65010  -0.62511  -0.60570  -0.58385
 Alpha  occ. eigenvalues --   -0.57392  -0.56952  -0.56064  -0.54988  -0.54113
 Alpha  occ. eigenvalues --   -0.53608  -0.52410  -0.51247  -0.50769  -0.50589
 Alpha  occ. eigenvalues --   -0.49697  -0.48231  -0.48016  -0.47060  -0.46308
 Alpha  occ. eigenvalues --   -0.45708  -0.44938  -0.42419  -0.41588  -0.39398
 Alpha  occ. eigenvalues --   -0.38282  -0.37706  -0.35485  -0.34632
 Alpha virt. eigenvalues --   -0.03751  -0.01843   0.01242   0.01900   0.02136
 Alpha virt. eigenvalues --    0.03395   0.08016   0.08236   0.09454   0.09904
 Alpha virt. eigenvalues --    0.11725   0.12285   0.13535   0.13898   0.14188
 Alpha virt. eigenvalues --    0.15272   0.15625   0.15920   0.16061   0.16752
 Alpha virt. eigenvalues --    0.17045   0.17300   0.18961   0.19253   0.20504
 Alpha virt. eigenvalues --    0.20780   0.20919   0.21137   0.21363   0.21460
 Alpha virt. eigenvalues --    0.21500   0.21720   0.21884   0.21942   0.22061
 Alpha virt. eigenvalues --    0.22606   0.22832   0.24724   0.25712   3.23198
 Alpha virt. eigenvalues --    3.23227   3.23294   3.24757   3.24805
          Condensed to atoms (all electrons):
               1          2          3          4          5          6
     1  C    4.068331   0.000000   0.000000   0.000000   0.000000   0.000000
     2  C    0.000000   4.205914   0.000000   0.000000   0.000000   0.000000
     3  C    0.000000   0.000000   3.908400   0.000000   0.000000   0.000000
     4  C    0.000000   0.000000   0.000000   4.212876   0.000000   0.000000
     5  C    0.000000   0.000000   0.000000   0.000000   4.041905   0.000000
     6  C    0.000000   0.000000   0.000000   0.000000   0.000000   4.192066
     7  H    0.000000   0.000000   0.000000   0.000000   0.000000   0.000000
     8  H    0.000000   0.000000   0.000000   0.000000   0.000000   0.000000
     9  H    0.000000   0.000000   0.000000   0.000000   0.000000   0.000000
    10  H    0.000000   0.000000   0.000000   0.000000   0.000000   0.000000
    11  C    0.000000   0.000000   0.000000   0.000000   0.000000   0.000000
    12  C    0.000000   0.000000   0.000000   0.000000   0.000000   0.000000
    13  C    0.000000   0.000000   0.000000   0.000000   0.000000   0.000000
    14  C    0.000000   0.000000   0.000000   0.000000   0.000000   0.000000
    15  H    0.000000   0.000000   0.000000   0.000000   0.000000   0.000000
    16  O    0.000000   0.000000   0.000000   0.000000   0.000000   0.000000
    17  Cl   0.000000   0.000000   0.000000   0.000000   0.000000   0.000000
    18  C    0.000000   0.000000   0.000000   0.000000   0.000000   0.000000
    19  C    0.000000   0.000000   0.000000   0.000000   0.000000   0.000000
    20  H    0.000000   0.000000   0.000000   0.000000   0.000000   0.000000
    21  C    0.000000   0.000000   0.000000   0.000000   0.000000   0.000000
    22  H    0.000000   0.000000   0.000000   0.000000   0.000000   0.000000
    23  H    0.000000   0.000000   0.000000   0.000000   0.000000   0.000000
    24  H    0.000000   0.000000   0.000000   0.000000   0.000000   0.000000
    25  C    0.000000   0.000000   0.000000   0.000000   0.000000   0.000000
    26  H    0.000000   0.000000   0.000000   0.000000   0.000000   0.000000
    27  H    0.000000   0.000000   0.000000   0.000000   0.000000   0.000000
    28  H    0.000000   0.000000   0.000000   0.000000   0.000000   0.000000
    29  C    0.000000   0.000000   0.000000   0.000000   0.000000   0.000000
    30  H    0.000000   0.000000   0.000000   0.000000   0.000000   0.000000
    31  H    0.000000   0.000000   0.000000   0.000000   0.000000   0.000000
    32  H    0.000000   0.000000   0.000000   0.000000   0.000000   0.000000
               7          8          9         10         11         12
     1  C    0.000000   0.000000   0.000000   0.000000   0.000000   0.000000
     2  C    0.000000   0.000000   0.000000   0.000000   0.000000   0.000000
     3  C    0.000000   0.000000   0.000000   0.000000   0.000000   0.000000
     4  C    0.000000   0.000000   0.000000   0.000000   0.000000   0.000000
     5  C    0.000000   0.000000   0.000000   0.000000   0.000000   0.000000
     6  C    0.000000   0.000000   0.000000   0.000000   0.000000   0.000000
     7  H    0.847652   0.000000   0.000000   0.000000   0.000000   0.000000
     8  H    0.000000   0.828889   0.000000   0.000000   0.000000   0.000000
     9  H    0.000000   0.000000   0.837169   0.000000   0.000000   0.000000
    10  H    0.000000   0.000000   0.000000   0.838019   0.000000   0.000000
    11  C    0.000000   0.000000   0.000000   0.000000   3.470093   0.000000
    12  C    0.000000   0.000000   0.000000   0.000000   0.000000   4.007778
    13  C    0.000000   0.000000   0.000000   0.000000   0.000000   0.000000
    14  C    0.000000   0.000000   0.000000   0.000000   0.000000   0.000000
    15  H    0.000000   0.000000   0.000000   0.000000   0.000000   0.000000
    16  O    0.000000   0.000000   0.000000   0.000000   0.000000   0.000000
    17  Cl   0.000000   0.000000   0.000000   0.000000   0.000000   0.000000
    18  C    0.000000   0.000000   0.000000   0.000000   0.000000   0.000000
    19  C    0.000000   0.000000   0.000000   0.000000   0.000000   0.000000
    20  H    0.000000   0.000000   0.000000   0.000000   0.000000   0.000000
    21  C    0.000000   0.000000   0.000000   0.000000   0.000000   0.000000
    22  H    0.000000   0.000000   0.000000   0.000000   0.000000   0.000000
    23  H    0.000000   0.000000   0.000000   0.000000   0.000000   0.000000
    24  H    0.000000   0.000000   0.000000   0.000000   0.000000   0.000000
    25  C    0.000000   0.000000   0.000000   0.000000   0.000000   0.000000
    26  H    0.000000   0.000000   0.000000   0.000000   0.000000   0.000000
    27  H    0.000000   0.000000   0.000000   0.000000   0.000000   0.000000
    28  H    0.000000   0.000000   0.000000   0.000000   0.000000   0.000000
    29  C    0.000000   0.000000   0.000000   0.000000   0.000000   0.000000
    30  H    0.000000   0.000000   0.000000   0.000000   0.000000   0.000000
    31  H    0.000000   0.000000   0.000000   0.000000   0.000000   0.000000
    32  H    0.000000   0.000000   0.000000   0.000000   0.000000   0.000000
              13         14         15         16         17         18
     1  C    0.000000   0.000000   0.000000   0.000000   0.000000   0.000000
     2  C    0.000000   0.000000   0.000000   0.000000   0.000000   0.000000
     3  C    0.000000   0.000000   0.000000   0.000000   0.000000   0.000000
     4  C    0.000000   0.000000   0.000000   0.000000   0.000000   0.000000
     5  C    0.000000   0.000000   0.000000   0.000000   0.000000   0.000000
     6  C    0.000000   0.000000   0.000000   0.000000   0.000000   0.000000
     7  H    0.000000   0.000000   0.000000   0.000000   0.000000   0.000000
     8  H    0.000000   0.000000   0.000000   0.000000   0.000000   0.000000
     9  H    0.000000   0.000000   0.000000   0.000000   0.000000   0.000000
    10  H    0.000000   0.000000   0.000000   0.000000   0.000000   0.000000
    11  C    0.000000   0.000000   0.000000   0.000000   0.000000   0.000000
    12  C    0.000000   0.000000   0.000000   0.000000   0.000000   0.000000
    13  C    4.144238   0.000000   0.000000   0.000000   0.000000   0.000000
    14  C    0.000000   4.153936   0.000000   0.000000   0.000000   0.000000
    15  H    0.000000   0.000000   0.829946   0.000000   0.000000   0.000000
    16  O    0.000000   0.000000   0.000000   6.534616   0.000000   0.000000
    17  Cl   0.000000   0.000000   0.000000   0.000000   7.097002   0.000000
    18  C    0.000000   0.000000   0.000000   0.000000   0.000000   3.869248
    19  C    0.000000   0.000000   0.000000   0.000000   0.000000   0.000000
    20  H    0.000000   0.000000   0.000000   0.000000   0.000000   0.000000
    21  C    0.000000   0.000000   0.000000   0.000000   0.000000   0.000000
    22  H    0.000000   0.000000   0.000000   0.000000   0.000000   0.000000
    23  H    0.000000   0.000000   0.000000   0.000000   0.000000   0.000000
    24  H    0.000000   0.000000   0.000000   0.000000   0.000000   0.000000
    25  C    0.000000   0.000000   0.000000   0.000000   0.000000   0.000000
    26  H    0.000000   0.000000   0.000000   0.000000   0.000000   0.000000
    27  H    0.000000   0.000000   0.000000   0.000000   0.000000   0.000000
    28  H    0.000000   0.000000   0.000000   0.000000   0.000000   0.000000
    29  C    0.000000   0.000000   0.000000   0.000000   0.000000   0.000000
    30  H    0.000000   0.000000   0.000000   0.000000   0.000000   0.000000
    31  H    0.000000   0.000000   0.000000   0.000000   0.000000   0.000000
    32  H    0.000000   0.000000   0.000000   0.000000   0.000000   0.000000
              19         20         21         22         23         24
     1  C    0.000000   0.000000   0.000000   0.000000   0.000000   0.000000
     2  C    0.000000   0.000000   0.000000   0.000000   0.000000   0.000000
     3  C    0.000000   0.000000   0.000000   0.000000   0.000000   0.000000
     4  C    0.000000   0.000000   0.000000   0.000000   0.000000   0.000000
     5  C    0.000000   0.000000   0.000000   0.000000   0.000000   0.000000
     6  C    0.000000   0.000000   0.000000   0.000000   0.000000   0.000000
     7  H    0.000000   0.000000   0.000000   0.000000   0.000000   0.000000
     8  H    0.000000   0.000000   0.000000   0.000000   0.000000   0.000000
     9  H    0.000000   0.000000   0.000000   0.000000   0.000000   0.000000
    10  H    0.000000   0.000000   0.000000   0.000000   0.000000   0.000000
    11  C    0.000000   0.000000   0.000000   0.000000   0.000000   0.000000
    12  C    0.000000   0.000000   0.000000   0.000000   0.000000   0.000000
    13  C    0.000000   0.000000   0.000000   0.000000   0.000000   0.000000
    14  C    0.000000   0.000000   0.000000   0.000000   0.000000   0.000000
    15  H    0.000000   0.000000   0.000000   0.000000   0.000000   0.000000
    16  O    0.000000   0.000000   0.000000   0.000000   0.000000   0.000000
    17  Cl   0.000000   0.000000   0.000000   0.000000   0.000000   0.000000
    18  C    0.000000   0.000000   0.000000   0.000000   0.000000   0.000000
    19  C    4.338462   0.000000   0.000000   0.000000   0.000000   0.000000
    20  H    0.000000   0.839262   0.000000   0.000000   0.000000   0.000000
    21  C    0.000000   0.000000   4.499281   0.000000   0.000000   0.000000
    22  H    0.000000   0.000000   0.000000   0.831272   0.000000   0.000000
    23  H    0.000000   0.000000   0.000000   0.000000   0.835886   0.000000
    24  H    0.000000   0.000000   0.000000   0.000000   0.000000   0.834340
    25  C    0.000000   0.000000   0.000000   0.000000   0.000000   0.000000
    26  H    0.000000   0.000000   0.000000   0.000000   0.000000   0.000000
    27  H    0.000000   0.000000   0.000000   0.000000   0.000000   0.000000
    28  H    0.000000   0.000000   0.000000   0.000000   0.000000   0.000000
    29  C    0.000000   0.000000   0.000000   0.000000   0.000000   0.000000
    30  H    0.000000   0.000000   0.000000   0.000000   0.000000   0.000000
    31  H    0.000000   0.000000   0.000000   0.000000   0.000000   0.000000
    32  H    0.000000   0.000000   0.000000   0.000000   0.000000   0.000000
              25         26         27         28         29         30
     1  C    0.000000   0.000000   0.000000   0.000000   0.000000   0.000000
     2  C    0.000000   0.000000   0.000000   0.000000   0.000000   0.000000
     3  C    0.000000   0.000000   0.000000   0.000000   0.000000   0.000000
     4  C    0.000000   0.000000   0.000000   0.000000   0.000000   0.000000
     5  C    0.000000   0.000000   0.000000   0.000000   0.000000   0.000000
     6  C    0.000000   0.000000   0.000000   0.000000   0.000000   0.000000
     7  H    0.000000   0.000000   0.000000   0.000000   0.000000   0.000000
     8  H    0.000000   0.000000   0.000000   0.000000   0.000000   0.000000
     9  H    0.000000   0.000000   0.000000   0.000000   0.000000   0.000000
    10  H    0.000000   0.000000   0.000000   0.000000   0.000000   0.000000
    11  C    0.000000   0.000000   0.000000   0.000000   0.000000   0.000000
    12  C    0.000000   0.000000   0.000000   0.000000   0.000000   0.000000
    13  C    0.000000   0.000000   0.000000   0.000000   0.000000   0.000000
    14  C    0.000000   0.000000   0.000000   0.000000   0.000000   0.000000
    15  H    0.000000   0.000000   0.000000   0.000000   0.000000   0.000000
    16  O    0.000000   0.000000   0.000000   0.000000   0.000000   0.000000
    17  Cl   0.000000   0.000000   0.000000   0.000000   0.000000   0.000000
    18  C    0.000000   0.000000   0.000000   0.000000   0.000000   0.000000
    19  C    0.000000   0.000000   0.000000   0.000000   0.000000   0.000000
    20  H    0.000000   0.000000   0.000000   0.000000   0.000000   0.000000
    21  C    0.000000   0.000000   0.000000   0.000000   0.000000   0.000000
    22  H    0.000000   0.000000   0.000000   0.000000   0.000000   0.000000
    23  H    0.000000   0.000000   0.000000   0.000000   0.000000   0.000000
    24  H    0.000000   0.000000   0.000000   0.000000   0.000000   0.000000
    25  C    4.516555   0.000000   0.000000   0.000000   0.000000   0.000000
    26  H    0.000000   0.813369   0.000000   0.000000   0.000000   0.000000
    27  H    0.000000   0.000000   0.831310   0.000000   0.000000   0.000000
    28  H    0.000000   0.000000   0.000000   0.832152   0.000000   0.000000
    29  C    0.000000   0.000000   0.000000   0.000000   4.310694   0.000000
    30  H    0.000000   0.000000   0.000000   0.000000   0.000000   0.806394
    31  H    0.000000   0.000000   0.000000   0.000000   0.000000   0.000000
    32  H    0.000000   0.000000   0.000000   0.000000   0.000000   0.000000
              31         32
     1  C    0.000000   0.000000
     2  C    0.000000   0.000000
     3  C    0.000000   0.000000
     4  C    0.000000   0.000000
     5  C    0.000000   0.000000
     6  C    0.000000   0.000000
     7  H    0.000000   0.000000
     8  H    0.000000   0.000000
     9  H    0.000000   0.000000
    10  H    0.000000   0.000000
    11  C    0.000000   0.000000
    12  C    0.000000   0.000000
    13  C    0.000000   0.000000
    14  C    0.000000   0.000000
    15  H    0.000000   0.000000
    16  O    0.000000   0.000000
    17  Cl   0.000000   0.000000
    18  C    0.000000   0.000000
    19  C    0.000000   0.000000
    20  H    0.000000   0.000000
    21  C    0.000000   0.000000
    22  H    0.000000   0.000000
    23  H    0.000000   0.000000
    24  H    0.000000   0.000000
    25  C    0.000000   0.000000
    26  H    0.000000   0.000000
    27  H    0.000000   0.000000
    28  H    0.000000   0.000000
    29  C    0.000000   0.000000
    30  H    0.000000   0.000000
    31  H    0.809391   0.000000
    32  H    0.000000   0.813555
 Mulliken charges:
               1
     1  C   -0.068331
     2  C   -0.205914
     3  C    0.091600
     4  C   -0.212876
     5  C   -0.041905
     6  C   -0.192066
     7  H    0.152348
     8  H    0.171111
     9  H    0.162831
    10  H    0.161981
    11  C    0.529907
    12  C   -0.007778
    13  C   -0.144238
    14  C   -0.153936
    15  H    0.170054
    16  O   -0.534616
    17  Cl  -0.097002
    18  C    0.130752
    19  C   -0.338462
    20  H    0.160738
    21  C   -0.499281
    22  H    0.168728
    23  H    0.164114
    24  H    0.165660
    25  C   -0.516555
    26  H    0.186631
    27  H    0.168690
    28  H    0.167848
    29  C   -0.310694
    30  H    0.193606
    31  H    0.190609
    32  H    0.186445
 Sum of Mulliken charges =   0.00000
 Mulliken charges with hydrogens summed into heavy atoms:
               1
     1  C    0.084017
     2  C   -0.034802
     3  C    0.091600
     4  C   -0.212876
     5  C    0.120926
     6  C   -0.030085
    11  C    0.529907
    12  C   -0.007778
    13  C    0.042207
    14  C    0.016118
    16  O   -0.534616
    17  Cl  -0.097002
    18  C    0.130752
    19  C   -0.177723
    21  C   -0.000779
    25  C    0.006614
    29  C    0.073521
 Charge=              0.0000 electrons
 Dipole moment (field-independent basis, Debye):
    X=             -0.5157    Y=              1.0689    Z=              0.7703  Tot=              1.4149
 N-N= 6.344231467084D+02 E-N=-1.155620274417D+03  KE=-5.626909792950D+01
 PrsmSu:  requested number of processors reduced to:   1 ShMem   1 Linda.
 D1PCM: C-PCM CHGder 1st derivatives, ID1Alg=3 FixD1E=F DoIter=F DoCFld=F I1PDM=0.
 Calling FoFJK, ICntrl=      2127 FMM=F ISym2X=0 I1Cent= 0 IOpClX= 0 NMat=1 NMatS=1 NMatT=0.
 ***** Axes restored to original set *****
 -------------------------------------------------------------------
 Center     Atomic                   Forces (Hartrees/Bohr)
 Number     Number              X              Y              Z
 -------------------------------------------------------------------
      1        6           0.006801968    0.011506070   -0.003108746
      2        6          -0.006349589    0.005952482   -0.004045231
      3        6           0.051420447   -0.008906219    0.010393145
      4        6           0.013716980    0.033938241   -0.009242817
      5        6           0.004943836   -0.009291588    0.005162704
      6        6           0.011587558    0.003437714    0.000438296
      7        1          -0.003890392   -0.009545644    0.002935622
      8        1           0.005045516   -0.008771089    0.003882809
      9        1          -0.006249335    0.009349976   -0.004055666
     10        1          -0.010110295   -0.001473366   -0.001016536
     11        6          -0.039268067    0.017253514   -0.023761432
     12        6          -0.026389067    0.018085139   -0.005574621
     13        6          -0.039538087   -0.088294519    0.018817015
     14        6          -0.032026071   -0.019147893    0.005302972
     15        1           0.008491116    0.008810942    0.001432685
     16        8           0.034473209   -0.042153248    0.031691794
     17       17          -0.017680933    0.015918809   -0.008257618
     18        6           0.005379152    0.015351114   -0.000121642
     19        6           0.030754777    0.072093601   -0.012479649
     20        1           0.007187044   -0.005391473    0.003816525
     21        6          -0.038806804   -0.024519236    0.012617062
     22        1           0.004532580    0.010279748    0.008523945
     23        1           0.012876212   -0.005126853   -0.004044131
     24        1          -0.000985791    0.008285926   -0.011776248
     25        6           0.049371128    0.002237383   -0.000003802
     26        1          -0.015071268   -0.008598488   -0.004332720
     27        1          -0.006091994    0.009273758    0.009272794
     28        1          -0.004591797    0.007363073   -0.011269900
     29        6           0.069014349    0.037877141   -0.044721004
     30        1          -0.023873415   -0.043836056    0.043356734
     31        1          -0.049027236   -0.015369943    0.024207009
     32        1           0.004354268    0.003410984   -0.034039349
 -------------------------------------------------------------------
 Cartesian Forces:  Max     0.088294519 RMS     0.023793520

 GradGradGradGradGradGradGradGradGradGradGradGradGradGradGradGradGradGrad
 Berny optimization.
 FormGI is forming the generalized inverse of G from B-inverse, IUseBI=4.
 Internal  Forces:  Max     0.092492799 RMS     0.016861689
 Search for a local minimum.
 Step number   1 out of a maximum of  179
 All quantities printed in internal units (Hartrees-Bohrs-Radians)
 Mixed Optimization -- RFO/linear search
 Second derivative matrix not updated -- first step.
 ITU=  0
     Eigenvalues ---    0.00237   0.00237   0.00237   0.00237   0.00270
     Eigenvalues ---    0.00385   0.00848   0.00948   0.01010   0.01215
     Eigenvalues ---    0.01358   0.01482   0.01641   0.01868   0.02066
     Eigenvalues ---    0.02067   0.02068   0.02069   0.02071   0.02073
     Eigenvalues ---    0.02681   0.02878   0.05041   0.05107   0.06253
     Eigenvalues ---    0.06725   0.07243   0.07243   0.07243   0.07243
     Eigenvalues ---    0.09620   0.09941   0.15173   0.15999   0.16000
     Eigenvalues ---    0.16000   0.16000   0.16000   0.16000   0.16000
     Eigenvalues ---    0.16000   0.16000   0.16000   0.16000   0.16000
     Eigenvalues ---    0.17574   0.21999   0.22000   0.22080   0.22568
     Eigenvalues ---    0.23522   0.24490   0.24949   0.24998   0.24998
     Eigenvalues ---    0.25000   0.25000   0.27303   0.27831   0.28439
     Eigenvalues ---    0.28519   0.28519   0.28519   0.28519   0.28870
     Eigenvalues ---    0.29539   0.37230   0.37230   0.37230   0.37230
     Eigenvalues ---    0.37230   0.37230   0.37230   0.37230   0.37230
     Eigenvalues ---    0.37230   0.37230   0.37230   0.37230   0.37230
     Eigenvalues ---    0.37230   0.40606   0.41336   0.45217   0.45344
     Eigenvalues ---    0.45392   0.45412   0.50949   0.53930   0.80209
 RFO step:  Lambda=-1.42877799D-01 EMin= 2.36824055D-03
 Linear search not attempted -- first point.
 Maximum step size (   0.300) exceeded in Quadratic search.
    -- Step size scaled by   0.601
 Iteration  1 RMS(Cart)=  0.20540817 RMS(Int)=  0.00695353
 Iteration  2 RMS(Cart)=  0.01752649 RMS(Int)=  0.00138016
 Iteration  3 RMS(Cart)=  0.00019439 RMS(Int)=  0.00137910
 Iteration  4 RMS(Cart)=  0.00000006 RMS(Int)=  0.00137910
 Variable       Old X    -DE/DX   Delta X   Delta X   Delta X     New X
                                 (Linear)    (Quad)   (Total)
    R1        2.64886  -0.00201   0.00000  -0.00218  -0.00218   2.64669
    R2        2.64897   0.00122   0.00000   0.00095   0.00095   2.64992
    R3        2.02201   0.01071   0.00000   0.01251   0.01251   2.03451
    R4        2.64817  -0.00003   0.00000   0.00010   0.00010   2.64827
    R5        2.02201   0.01070   0.00000   0.01249   0.01249   2.03450
    R6        2.63297   0.00678   0.00000   0.00708   0.00704   2.64001
    R7        2.90918  -0.04918   0.00000  -0.07001  -0.07000   2.83918
    R8        2.64757  -0.00171   0.00000  -0.00156  -0.00157   2.64600
    R9        2.89669  -0.03376   0.00000  -0.04559  -0.04564   2.85106
   R10        2.64829  -0.00239   0.00000  -0.00254  -0.00254   2.64575
   R11        2.02201   0.01190   0.00000   0.01389   0.01389   2.03590
   R12        2.02201   0.01027   0.00000   0.01198   0.01198   2.03399
   R13        2.91152  -0.01321   0.00000  -0.01764  -0.01764   2.89388
   R14        2.37803  -0.06300   0.00000  -0.04010  -0.04010   2.33794
   R15        2.57432  -0.03162   0.00000  -0.02923  -0.02918   2.54514
   R16        3.32592  -0.02478   0.00000  -0.03400  -0.03400   3.29192
   R17        2.92468  -0.02686   0.00000  -0.03856  -0.03853   2.88615
   R18        2.91018   0.03834   0.00000   0.05386   0.05386   2.96404
   R19        2.02201   0.02718   0.00000   0.03173   0.03173   2.05374
   R20        2.02201   0.00885   0.00000   0.01033   0.01033   2.03233
   R21        2.56096   0.01150   0.00000   0.01014   0.01014   2.57110
   R22        2.91018  -0.02488   0.00000  -0.03495  -0.03495   2.87523
   R23        2.91018  -0.01855   0.00000  -0.02606  -0.02606   2.88411
   R24        2.02201   0.00891   0.00000   0.01040   0.01040   2.03240
   R25        2.91018   0.08273   0.00000   0.11624   0.11624   3.02641
   R26        2.02201   0.01399   0.00000   0.01633   0.01633   2.03834
   R27        2.02201   0.01395   0.00000   0.01629   0.01629   2.03830
   R28        2.02201   0.01399   0.00000   0.01633   0.01633   2.03834
   R29        2.02201   0.01597   0.00000   0.01865   0.01865   2.04065
   R30        2.02201   0.01424   0.00000   0.01663   0.01663   2.03864
   R31        2.02201   0.01370   0.00000   0.01599   0.01599   2.03800
   R32        2.02201   0.02463   0.00000   0.02876   0.02876   2.05076
   R33        2.02201   0.01849   0.00000   0.02158   0.02158   2.04359
    A1        2.09362   0.00232   0.00000   0.00332   0.00332   2.09694
    A2        2.09478  -0.00143   0.00000  -0.00219  -0.00219   2.09259
    A3        2.09479  -0.00089   0.00000  -0.00113  -0.00113   2.09365
    A4        2.09297  -0.00267   0.00000  -0.00425  -0.00425   2.08872
    A5        2.09509  -0.00041   0.00000  -0.00134  -0.00134   2.09375
    A6        2.09512   0.00308   0.00000   0.00559   0.00559   2.10071
    A7        2.09511   0.00037   0.00000   0.00149   0.00149   2.09660
    A8        2.09806   0.00541   0.00000   0.00788   0.00790   2.10596
    A9        2.08983  -0.00579   0.00000  -0.00941  -0.00942   2.08040
   A10        2.09831   0.00016   0.00000   0.00002   0.00003   2.09835
   A11        2.08238   0.00131   0.00000   0.00382   0.00376   2.08615
   A12        2.10247  -0.00148   0.00000  -0.00384  -0.00380   2.09867
   A13        2.09193  -0.00133   0.00000  -0.00194  -0.00195   2.08998
   A14        2.09563  -0.00045   0.00000  -0.00125  -0.00125   2.09439
   A15        2.09562   0.00178   0.00000   0.00319   0.00320   2.09881
   A16        2.09315   0.00119   0.00000   0.00149   0.00149   2.09464
   A17        2.09502  -0.00036   0.00000  -0.00029  -0.00029   2.09473
   A18        2.09502  -0.00082   0.00000  -0.00120  -0.00120   2.09382
   A19        2.09521  -0.00661   0.00000  -0.00735  -0.00737   2.08784
   A20        2.09417   0.00346   0.00000   0.00391   0.00391   2.09808
   A21        2.09375   0.00315   0.00000   0.00342   0.00342   2.09718
   A22        2.11941   0.01031   0.00000   0.01420   0.01427   2.13368
   A23        2.08168  -0.01132   0.00000  -0.01655  -0.01659   2.06509
   A24        2.08204   0.00101   0.00000   0.00233   0.00229   2.08433
   A25        1.94432   0.00218   0.00000   0.00104   0.00096   1.94528
   A26        1.89225  -0.00588   0.00000  -0.01376  -0.01372   1.87853
   A27        1.90958  -0.00449   0.00000  -0.01216  -0.01212   1.89746
   A28        1.89222  -0.00225   0.00000  -0.00495  -0.00505   1.88716
   A29        1.90962  -0.00330   0.00000  -0.00784  -0.00796   1.90166
   A30        1.91562   0.01409   0.00000   0.03867   0.03871   1.95434
   A31        2.13276  -0.00145   0.00000  -0.00279  -0.00270   2.13005
   A32        2.07536   0.00841   0.00000   0.01666   0.01662   2.09197
   A33        2.07503  -0.00697   0.00000  -0.01389  -0.01393   2.06110
   A34        2.09440  -0.00978   0.00000  -0.01498  -0.01498   2.07942
   A35        2.09440   0.03660   0.00000   0.05603   0.05602   2.15042
   A36        2.09440  -0.02682   0.00000  -0.04105  -0.04105   2.05334
   A37        2.09440  -0.02050   0.00000  -0.03266  -0.03269   2.06171
   A38        2.09440   0.04901   0.00000   0.08122   0.08119   2.17559
   A39        2.09440  -0.02851   0.00000  -0.04856  -0.04858   2.04581
   A40        1.91063   0.00073   0.00000   0.00126   0.00125   1.91188
   A41        1.91063   0.00439   0.00000   0.00891   0.00888   1.91951
   A42        1.91063   0.00392   0.00000   0.00781   0.00778   1.91841
   A43        1.91063  -0.00261   0.00000  -0.00522  -0.00523   1.90540
   A44        1.91063  -0.00289   0.00000  -0.00609  -0.00610   1.90453
   A45        1.91063  -0.00355   0.00000  -0.00665  -0.00670   1.90394
   A46        1.91063   0.01041   0.00000   0.02126   0.02118   1.93182
   A47        1.91063   0.00086   0.00000   0.00171   0.00167   1.91230
   A48        1.91063   0.00266   0.00000   0.00471   0.00467   1.91531
   A49        1.91063  -0.00383   0.00000  -0.00644  -0.00652   1.90412
   A50        1.91063  -0.00653   0.00000  -0.01296  -0.01303   1.89760
   A51        1.91063  -0.00357   0.00000  -0.00827  -0.00827   1.90236
   A52        1.50962   0.09249   0.00000   0.17856   0.17728   1.68690
   A53        2.10774   0.00833   0.00000   0.01605   0.00469   2.11243
   A54        2.07606   0.01030   0.00000   0.03106   0.02032   2.09638
   A55        1.44041  -0.01348   0.00000   0.02235   0.02241   1.46281
   A56        1.58323  -0.01334   0.00000   0.01888   0.01551   1.59874
   A57        2.08057  -0.00482   0.00000  -0.00106  -0.00700   2.07356
    D1        0.00395   0.00009   0.00000   0.00046   0.00047   0.00442
    D2       -3.13379  -0.00024   0.00000  -0.00048  -0.00048  -3.13426
    D3       -3.13989   0.00017   0.00000   0.00060   0.00060  -3.13929
    D4        0.00555  -0.00016   0.00000  -0.00034  -0.00034   0.00521
    D5       -0.01971   0.00027   0.00000   0.00091   0.00091  -0.01881
    D6        3.12348   0.00008   0.00000   0.00031   0.00031   3.12379
    D7        3.12413   0.00019   0.00000   0.00077   0.00077   3.12491
    D8       -0.01586   0.00000   0.00000   0.00018   0.00018  -0.01569
    D9        0.03469  -0.00078   0.00000  -0.00261  -0.00261   0.03207
   D10       -3.08578  -0.00048   0.00000  -0.00079  -0.00079  -3.08657
   D11       -3.11076  -0.00045   0.00000  -0.00168  -0.00168  -3.11244
   D12        0.05196  -0.00015   0.00000   0.00014   0.00015   0.05210
   D13       -0.05759   0.00096   0.00000   0.00325   0.00325  -0.05434
   D14        3.09010   0.00128   0.00000   0.00388   0.00390   3.09399
   D15        3.06298   0.00079   0.00000   0.00165   0.00166   3.06464
   D16       -0.07252   0.00111   0.00000   0.00228   0.00230  -0.07022
   D17       -3.07720   0.00079   0.00000   0.00141   0.00143  -3.07576
   D18        0.07582   0.00102   0.00000   0.00422   0.00421   0.08003
   D19        0.08546   0.00101   0.00000   0.00309   0.00312   0.08857
   D20       -3.04472   0.00125   0.00000   0.00591   0.00589  -3.03882
   D21        0.04170  -0.00061   0.00000  -0.00194  -0.00193   0.03977
   D22       -3.10374  -0.00038   0.00000  -0.00137  -0.00137  -3.10511
   D23       -3.10606  -0.00092   0.00000  -0.00255  -0.00255  -3.10861
   D24        0.03169  -0.00069   0.00000  -0.00198  -0.00199   0.02970
   D25       -0.21981  -0.00046   0.00000  -0.00361  -0.00361  -0.22341
   D26        2.93361  -0.00020   0.00000  -0.00045  -0.00047   2.93314
   D27        2.92789  -0.00015   0.00000  -0.00299  -0.00298   2.92492
   D28       -0.20188   0.00011   0.00000   0.00017   0.00016  -0.20171
   D29       -0.00296  -0.00009   0.00000  -0.00027  -0.00027  -0.00322
   D30        3.13704   0.00010   0.00000   0.00033   0.00033   3.13737
   D31       -3.14070  -0.00032   0.00000  -0.00083  -0.00083  -3.14152
   D32       -0.00070  -0.00013   0.00000  -0.00023  -0.00023  -0.00093
   D33        0.45869  -0.00007   0.00000   0.00213   0.00210   0.46079
   D34       -1.62207   0.00513   0.00000   0.01634   0.01632  -1.60574
   D35        2.57237  -0.00580   0.00000  -0.01518  -0.01522   2.55715
   D36       -2.69472  -0.00033   0.00000  -0.00102  -0.00104  -2.69576
   D37        1.50771   0.00487   0.00000   0.01318   0.01319   1.52089
   D38       -0.58104  -0.00606   0.00000  -0.01834  -0.01836  -0.59940
   D39        0.20486  -0.00188   0.00000  -0.00488  -0.00489   0.19997
   D40       -2.94708  -0.00257   0.00000  -0.00677  -0.00681  -2.95389
   D41       -2.94816  -0.00220   0.00000  -0.00782  -0.00781  -2.95597
   D42        0.18309  -0.00288   0.00000  -0.00971  -0.00974   0.17335
   D43       -0.45836   0.00022   0.00000   0.00142   0.00140  -0.45697
   D44        2.69357   0.00082   0.00000   0.00313   0.00312   2.69669
   D45        1.62242  -0.00713   0.00000  -0.01803  -0.01803   1.60438
   D46       -1.50883  -0.00654   0.00000  -0.01632  -0.01631  -1.52515
   D47       -2.57203   0.00665   0.00000   0.02125   0.02117  -2.55085
   D48        0.57991   0.00725   0.00000   0.02297   0.02289   0.60280
   D49       -2.49054  -0.00020   0.00000  -0.00313  -0.00395  -2.49450
   D50        2.41103  -0.04002   0.00000  -0.13693  -0.13665   2.27438
   D51       -0.93940   0.03507   0.00000   0.11525   0.11603  -0.82337
   D52        1.67939   0.00196   0.00000   0.00664   0.00574   1.68513
   D53        0.29779  -0.03786   0.00000  -0.12716  -0.12696   0.17083
   D54       -3.05265   0.03723   0.00000   0.12502   0.12572  -2.92693
   D55       -0.40559  -0.00093   0.00000  -0.00351  -0.00449  -0.41007
   D56       -1.78719  -0.04075   0.00000  -0.13731  -0.13719  -1.92438
   D57        1.14556   0.03434   0.00000   0.11487   0.11549   1.26105
   D58        0.00000   0.00226   0.00000   0.00843   0.00842   0.00842
   D59        3.14159  -0.00126   0.00000  -0.00523  -0.00530   3.13629
   D60        3.14159   0.00300   0.00000   0.01140   0.01147  -3.13012
   D61        0.00000  -0.00052   0.00000  -0.00226  -0.00226  -0.00226
   D62       -1.57080   0.00011   0.00000   0.00066   0.00061  -1.57018
   D63        0.52360   0.00005   0.00000   0.00049   0.00043   0.52403
   D64        2.61799   0.00079   0.00000   0.00258   0.00255   2.62054
   D65        1.57080  -0.00064   0.00000  -0.00231  -0.00227   1.56853
   D66       -2.61799  -0.00070   0.00000  -0.00248  -0.00244  -2.62044
   D67       -0.52360   0.00004   0.00000  -0.00039  -0.00033  -0.52393
   D68       -0.52360  -0.00145   0.00000  -0.00495  -0.00497  -0.52857
   D69        1.57080   0.00076   0.00000   0.00123   0.00124   1.57203
   D70       -2.61799  -0.00146   0.00000  -0.00497  -0.00502  -2.62301
   D71        2.61799  -0.00070   0.00000  -0.00198  -0.00196   2.61603
   D72       -1.57080   0.00151   0.00000   0.00420   0.00424  -1.56655
   D73        0.52360  -0.00071   0.00000  -0.00200  -0.00201   0.52159
   D74        1.55509   0.01045   0.00000   0.03593   0.03537   1.59046
   D75       -2.60471   0.00327   0.00000   0.01462   0.01730  -2.58741
   D76       -0.52118   0.00111   0.00000   0.00951   0.00731  -0.51386
   D77       -1.58650   0.00693   0.00000   0.02227   0.02176  -1.56474
   D78        0.53688  -0.00025   0.00000   0.00096   0.00369   0.54057
   D79        2.62041  -0.00241   0.00000  -0.00415  -0.00630   2.61411
         Item               Value     Threshold  Converged?
 Maximum Force            0.092493     0.000450     NO 
 RMS     Force            0.016862     0.000300     NO 
 Maximum Displacement     0.709486     0.001800     NO 
 RMS     Displacement     0.211231     0.001200     NO 
 Predicted change in Energy=-7.361240D-02
 GradGradGradGradGradGradGradGradGradGradGradGradGradGradGradGradGradGrad

                          Input orientation:                          
 ---------------------------------------------------------------------
 Center     Atomic      Atomic             Coordinates (Angstroms)
 Number     Number       Type             X           Y           Z
 ---------------------------------------------------------------------
      1          6           0       -3.838887   -0.356814    1.165630
      2          6           0       -2.458077   -0.126069    1.206936
      3          6           0       -1.942240    1.084560    0.725042
      4          6           0       -2.804905    2.071364    0.241582
      5          6           0       -4.182903    1.832051    0.175058
      6          6           0       -4.700162    0.616829    0.639690
      7          1           0       -4.239230   -1.284736    1.536836
      8          1           0       -1.798873   -0.878381    1.605136
      9          1           0       -4.841093    2.582810   -0.229703
     10          1           0       -5.759296    0.430704    0.593835
     11          6           0       -2.240187    3.393310   -0.216427
     12          6           0       -0.459891    1.327342    0.693495
     13          6           0       -0.790501    3.754459    0.119869
     14          6           0        0.067467    2.504911    0.307261
     15          1           0        1.125484    2.586135    0.132253
     16          8           0       -2.948667    4.188193   -0.846378
     17         17           0        0.600868    0.024950    1.155182
     18          6           0        0.173432    6.788122    0.511572
     19          6           0        0.368851    5.574501    1.094730
     20          1           0        1.376312    5.282473    1.332315
     21          6           0        1.377487    7.668835    0.212287
     22          1           0        1.578859    8.304892    1.059845
     23          1           0        2.242911    7.055695    0.016011
     24          1           0        1.177544    8.283553   -0.651203
     25          6           0       -1.206169    7.324192    0.139230
     26          1           0       -1.876599    6.514099   -0.106507
     27          1           0       -1.613717    7.880290    0.968969
     28          1           0       -1.124729    7.977427   -0.715015
     29          6           0       -0.800084    4.547284    1.473212
     30          1           0       -0.135949    4.273587    2.286668
     31          1           0       -1.502849    5.355339    1.623686
     32          1           0       -0.380356    4.345434   -0.694774
 ---------------------------------------------------------------------
                    Distance matrix (angstroms):
                    1          2          3          4          5
     1  C    0.000000
     2  C    1.400566   0.000000
     3  C    2.422591   1.401404   0.000000
     4  C    2.796253   2.425059   1.397034   0.000000
     5  C    2.427078   2.806070   2.425241   1.400205   0.000000
     6  C    1.402279   2.429117   2.798605   2.422016   1.400073
     7  H    1.076618   2.150313   3.398343   3.872774   3.401760
     8  H    2.151013   1.076609   2.155982   3.401819   3.882675
     9  H    3.404814   3.883390   3.399947   2.151685   1.077351
    10  H    2.152930   3.403518   3.874875   3.397687   2.150387
    11  C    4.304574   3.802562   2.511068   1.508715   2.522883
    12  C    3.804853   2.523643   1.502430   2.501376   3.792667
    13  C    5.223872   4.361310   2.970033   2.627821   3.899627
    14  C    4.917913   3.756308   2.496169   2.905649   4.305330
    15  H    5.862917   4.620920   3.466562   3.965463   5.361851
    16  O    5.049530   4.803086   3.621435   2.384384   2.849224
    17  Cl   4.456150   3.063108   2.788403   4.076979   5.206795
    18  C    8.220499   7.430641   6.087057   5.584908   6.607083
    19  C    7.272591   6.364010   5.063337   4.803390   5.964075
    20  H    7.682945   6.631033   5.385540   5.383632   6.644511
    21  C    9.619276   8.744222   7.391629   6.987485   8.061475
    22  H   10.217060   9.348776   8.040114   7.664451   8.710822
    23  H    9.656872   8.665756   7.326163   7.097526   8.282683
    24  H   10.154871   9.348378   7.965714   7.432917   8.428462
    25  C    8.184287   7.629789   6.310150   5.491688   6.247067
    26  H    7.257985   6.793754   5.493239   4.552012   5.226843
    27  H    8.534632   8.054276   6.808038   5.974249   6.619079
    28  H    8.964544   8.434356   7.088984   6.214471   6.921727
    29  C    5.777465   4.965891   3.722195   3.415611   4.527820
    30  H    6.033995   5.090686   3.983875   4.019389   5.176662
    31  H    6.188342   5.579604   4.386363   3.793422   4.657765
    32  H    6.126473   5.284673   3.884412   3.453490   4.640374
                    6          7          8          9         10
     6  C    0.000000
     7  H    2.152505   0.000000
     8  H    3.403706   2.474900   0.000000
     9  H    2.154248   4.294276   4.959998   0.000000
    10  H    1.076341   2.478424   4.292014   2.480498   0.000000
    11  C    3.807002   5.380913   4.664783   2.724299   4.670941
    12  C    4.299723   4.670928   2.736635   4.650099   5.375647
    13  C    5.039880   6.268573   4.968505   4.231106   5.996742
    14  C    5.138643   5.866934   4.076073   4.938458   6.191577
    15  H    6.170398   6.762887   4.766981   5.977547   7.229048
    16  O    4.246266   6.107226   5.744747   2.557112   4.908418
    17  Cl   5.358821   5.028666   2.603309   6.170534   6.397767
    18  C    7.864680   9.257094   7.991317   6.586320   8.696022
    19  C    7.104961   8.275204   6.826363   6.152061   8.016466
    20  H    7.692301   8.643169   6.936307   6.955876   8.660365
    21  C    9.319404  10.652153   9.224109   8.045729  10.172010
    22  H    9.935238  11.226693   9.799945   8.696031  10.773510
    23  H    9.489691  10.672106   9.044938   8.381539  10.404792
    24  H    9.746409  11.210758   9.893996   8.300610  10.551640
    25  C    7.579392   9.233981   8.353585   5.985774   8.273924
    26  H    6.580814   8.312907   7.588447   4.925286   7.250759
    27  H    7.898889   9.550575   8.783696   6.317917   8.533633
    28  H    8.294417  10.027891   9.179483   6.568773   8.952392
    29  C    5.599450   6.770836   5.518408   4.805084   6.504869
    30  H    6.075892   6.949397   5.456425   5.597252   7.018224
    31  H    5.800391   7.182334   6.240772   4.718670   6.590141
    32  H    5.860377   7.181212   5.881328   4.818850   6.776328
                   11         12         13         14         15
    11  C    0.000000
    12  C    2.875002   0.000000
    13  C    1.531376   2.515799   0.000000
    14  C    2.527602   1.346831   1.527284   0.000000
    15  H    3.478628   2.100706   2.244133   1.075464   0.000000
    16  O    1.237182   4.092637   2.404046   3.641619   4.485868
    17  Cl   4.615057   1.742007   4.113030   2.674639   2.807361
    18  C    4.228509   5.500393   3.207134   4.289391   4.325158
    19  C    3.644695   4.345822   2.367911   3.183288   3.229426
    20  H    4.364241   4.407130   2.915464   3.237076   2.961977
    21  C    5.617070   6.619823   4.475606   5.328347   5.089573
    22  H    6.351190   7.278525   5.215732   6.040734   5.811210
[...]
 36,-0.00002484,0.00000324,-0.00007664,-0.00011057,-0.00006123,-0.00003
 680,0.00004510,-0.00001608,0.00001201,0.00001425,0.00000451,-0.0001915
 8,0.00010351,0.00001745,0.00000319,-0.00001632,0.00000286,-0.02594497,
 0.02321208,0.01318098,-0.00069719,-0.00016335,-0.00016318,0.00002504,-
 0.00050143,-0.00108632,-0.00014712,-0.00050967,-0.00054284,-0.00073654
 ,-0.00034866,0.00004586,-0.00006163,-0.00003765,-0.00006521,-0.0000362
 7,0.00011366,0.00005348,-0.06372474,0.04644655,0.05238771,0.00553674,-
 0.00675683,-0.00619711,0.08400086,-0.00001916,0.00001362,-0.00000297,0
 .00003781,0.00005299,-0.00000520,-0.00000873,-0.00005149,0.00000718,0.
 00008618,0.00019595,-0.00004198,-0.00003449,0.00001075,-0.00000501,0.0
 0002545,0.00001180,0.00000089,-0.00000852,-0.00002046,0.00000264,0.000
 01017,-0.00001677,0.00000271,-0.00001629,0.00000395,-0.00000295,-0.000
 02187,-0.00000190,-0.00000098,-0.00011520,-0.00059008,0.00005285,0.000
 08166,-0.00005223,0.00000727,0.00004071,0.00017414,0.00006420,0.000002
 57,-0.00001795,0.00002382,0.00001527,0.00000032,-0.00000611,0.00014852
 ,0.00050466,0.00004920,-0.00005408,0.00007827,-0.00001399,0.01737359,-
 0.00729279,-0.00509954,0.00002945,-0.00002942,0.00010754,0.00004111,0.
 00021706,0.00036420,-0.00034835,-0.00061072,-0.00000324,-0.00031507,0.
 00008613,0.00004163,0.00001640,0.00001115,0.00005472,-0.00007222,0.000
 08373,-0.00008440,0.04658898,-0.09855498,-0.07634423,0.00190372,-0.017
 43707,-0.01655009,-0.06329306,0.11708071,-0.00001238,0.00000622,-0.000
 00080,0.00001933,0.00002036,-0.00000660,-0.00001137,-0.00002117,0.0000
 1047,0.00003396,0.00006573,-0.00003703,-0.00000838,0.00000897,-0.00000
 283,0.00001071,-0.00000432,-0.00000313,-0.00000260,-0.00000580,0.00000
 246,0.00000264,-0.00000472,0.00000351,-0.00000640,0.00000462,0.0000065
 0,-0.00000737,0.00000039,0.00000281,-0.00005289,-0.00017893,0.00010692
 ,0.00003449,-0.00000894,0.00000003,0.00012527,0.00012664,-0.00003268,0
 .00000910,-0.00003057,-0.00000105,-0.00000169,-0.00000777,0.00000502,0
 .00007840,0.00022502,-0.00011536,-0.00001600,0.00002640,-0.00000427,0.
 00421939,-0.00069532,0.00668242,-0.00097218,0.00069634,-0.00090296,0.0
 0019450,-0.00014497,-0.00035593,-0.00052383,-0.00010259,-0.00044796,0.
 00009586,0.00009478,0.00013628,-0.00001872,-0.00002657,0.00005717,0.00
 011877,0.00004420,-0.00002533,0.05170229,-0.07548739,-0.11708792,-0.00
 021551,-0.00866649,-0.00218840,-0.06400408,0.09299910,0.13695520,0.000
 02788,-0.00000834,0.00000239,-0.00003186,-0.00001980,0.00000115,0.0000
 4348,0.00002377,-0.00000054,-0.00002637,0.00004028,-0.00000449,-0.0000
 2627,-0.00002085,0.00000141,-0.00001720,0.00003259,-0.00000681,0.00000
 067,0.00000073,0.00000010,0.00000237,0.00000124,0.00000007,0.00001019,
 -0.00001715,0.00000432,0.00000759,-0.00000135,0.00000094,0.00028695,-0
 .00015107,0.00004715,-0.00002933,-0.00002726,0.00000224,-0.00019168,-0
 .00018382,-0.00004066,-0.00003961,0.00004658,-0.00001793,0.00001227,0.
 00001491,-0.00000006,-0.00016108,0.00019442,-0.00007875,0.00000127,-0.
 00001313,0.00000311,-0.00787553,0.01626771,-0.02592790,-0.00262420,0.0
 0056355,-0.00029712,-0.00025491,0.00072009,0.00041406,-0.00118955,-0.0
 0019122,-0.00026286,-0.00051150,-0.00033280,-0.00044522,0.00004196,0.0
 0009846,-0.00007976,-0.00089798,-0.00000938,0.00013516,-0.03367760,-0.
 00331376,0.00393127,-0.00019442,-0.00955083,0.00972765,0.00181456,-0.0
 0205004,0.00942683,0.04522002,-0.00002345,0.00001340,-0.00000285,0.000
 03984,0.00004820,-0.00000720,-0.00002607,-0.00004523,0.00000905,0.0000
 7036,0.00012355,-0.00002594,-0.00001649,0.00001517,-0.00000461,0.00002
 477,0.00000049,0.00000051,-0.00000732,-0.00001731,0.00000282,0.0000077
 8,-0.00001482,0.00000324,-0.00001445,0.00000584,0.00000033,-0.00001998
 ,-0.00000169,0.00000006,-0.00018195,-0.00033321,0.00009123,0.00008242,
 -0.00003106,0.00000709,0.00013325,0.00022139,-0.00002390,0.00001520,-0
 .00005331,0.00000735,0.00000615,-0.00000823,0.00000027,0.00015356,0.00
 024239,-0.00008724,-0.00004492,0.00006675,-0.00001019,0.01001124,-0.00
 495390,0.01309975,0.00031782,0.00031035,-0.00005422,0.00020394,-0.0001
 8549,-0.00009971,-0.00030391,-0.00020542,-0.00012997,-0.00031162,0.000
 02818,-0.00013827,-0.00008632,-0.00004204,0.00003238,-0.00000050,0.000
 22863,-0.00002151,-0.00221370,-0.07760401,0.08006315,-0.00724762,-0.01
 386442,0.01702598,0.00154367,0.00675632,-0.00897085,-0.00201777,0.0895
 0320,0.00001496,-0.00000815,0.00000245,-0.00002380,-0.00003030,-0.0000
 0151,0.00001291,0.00003084,0.00000334,-0.00004647,-0.00009865,0.000004
 69,0.00001319,-0.00001102,0.00000287,-0.00001467,0.00000040,-0.0000064
 2,0.00000376,0.00000958,0.00000046,-0.00000481,0.00000839,0.00000139,0
 .00000859,-0.00000312,0.00000807,0.00001054,0.00000091,0.00000358,0.00
 008308,0.00028204,0.00000899,-0.00004739,0.00001978,-0.00000312,-0.000
 06807,-0.00014628,-0.00010581,-0.00001000,0.00001655,-0.00002240,-0.00
 000623,0.00000650,0.00001339,-0.00011022,-0.00031252,-0.00006756,0.000
 02733,-0.00004286,0.00000697,-0.01300030,0.01119990,-0.01329547,-0.000
 09899,0.00003442,-0.00001282,-0.00017852,0.00014631,0.00014850,-0.0000
 0725,-0.00005156,-0.00028868,-0.00041512,-0.00025982,-0.00007930,0.000
 03144,0.00010438,-0.00000083,-0.00012301,0.00000336,0.00027283,0.00130
 504,0.07961944,-0.17279020,0.00306212,0.00609073,-0.00005607,0.0059472
 2,0.00427015,-0.02287526,0.00355850,-0.10086751,0.20901259,-0.00064314
 ,0.00018108,-0.00005569,0.00066159,0.00041496,-0.00016891,-0.00164777,
 -0.00029008,-0.00006016,-0.00245397,-0.00157910,0.00218118,0.00070571,
 0.00019832,-0.00008392,0.00017259,-0.00077252,-0.00002580,0.00000064,-
 0.00000160,0.00002608,-0.00001959,-0.00007233,0.00000858,0.00000551,0.
 00007962,0.00004566,-0.00008981,-0.00002081,0.00003662,-0.01567629,-0.
 01416395,-0.02058064,0.00106851,0.00189012,-0.00035674,-0.05477602,-0.
 00820251,-0.01396918,0.00441999,0.00657492,0.00802097,-0.00029486,0.00
 045019,0.00006228,-0.00155726,-0.00214156,-0.00076306,-0.00019423,0.00
 050256,-0.00055812,0.00223916,-0.01315491,0.00796791,-0.15058544,-0.08
 245010,0.03378782,-0.03329368,-0.01916778,0.00443982,0.00153318,0.0003
 6875,-0.00131460,-0.00010186,-0.00021340,0.00005800,-0.00010185,0.0000
 9713,-0.00004237,0.00003268,0.00013347,0.00005834,-0.00025588,0.001913
 19,-0.00059543,-0.00023439,0.00059887,-0.00058525,-0.00002827,-0.00013
 958,-0.00016640,0.00017835,-0.00005710,0.00009528,0.45442366,-0.000240
 51,0.00013723,-0.00002184,0.00031251,0.00036984,-0.00004742,-0.0003167
 0,-0.00044126,-0.00011926,-0.00012393,0.00044119,-0.00008856,-0.000027
 93,0.00012138,0.00001757,0.00005179,-0.00010189,0.00000325,-0.00002453
 ,-0.00006220,0.00000918,0.00004644,-0.00003377,0.00001008,-0.00006010,
 -0.00000475,0.00000255,-0.00003419,0.00000198,-0.00000091,-0.02208825,
 -0.00723296,-0.01046031,0.00175644,-0.00048146,-0.00026790,-0.00617392
 ,-0.09142851,-0.05325163,0.00733302,-0.03576032,-0.01798549,0.00063618
 ,-0.00024734,0.00001685,0.00244807,-0.00138666,0.00089299,-0.00007336,
 -0.00010595,0.00080418,-0.01759283,-0.03655528,0.01989776,-0.08624942,
 -0.13126026,0.03038947,-0.00868822,0.00166430,0.00281431,0.00081207,0.
 00043507,0.00382826,0.00005711,0.00003028,0.00003126,0.00014301,0.0000
 6071,0.00002288,-0.00056581,-0.00058829,0.00023015,-0.00123235,-0.0029
 9337,0.00056178,0.00102965,-0.00031325,0.00090979,0.00033998,-0.000008
 00,-0.00008145,-0.00013495,-0.00010316,-0.00004865,0.03149668,0.445279
 77,-0.00012885,0.00006329,-0.00001427,0.00014894,0.00015368,0.00003702
 ,-0.00032826,-0.00014837,0.00000837,0.00024399,-0.00008231,-0.00048048
 ,0.00009917,0.00012032,0.00008346,0.00003696,-0.00010066,0.00005434,-0
 .00000641,-0.00001659,-0.00000761,0.00000180,-0.00000924,-0.00000726,-
 0.00002456,-0.00000022,-0.00001467,-0.00001149,-0.00000141,-0.00002014
 ,-0.01631507,-0.00688909,-0.00616643,0.00042115,0.00086620,-0.00057343
 ,-0.01516851,-0.05317818,-0.11556269,0.00515472,-0.01494265,0.00007641
 ,0.00025389,-0.00014251,0.00010127,-0.00000607,-0.00204156,0.00005258,
 0.00000496,0.00004398,-0.00005224,0.01051277,0.01764015,-0.00524787,0.
 03991004,0.03782101,-0.07232882,-0.00127460,0.00044677,0.00628091,-0.0
 0087559,0.00525898,0.00507349,0.00084344,0.00054964,-0.00042859,-0.000
 18764,-0.00003587,-0.00008989,-0.00065328,-0.00069734,0.00046078,-0.00
 021847,0.00131113,-0.00316900,-0.00055389,0.00063553,-0.00045791,0.000
 53269,-0.00029702,0.00007161,-0.00003197,0.00000184,0.00012792,-0.0142
 0144,-0.02596824,0.42088424,0.00003958,-0.00000467,0.00000101,-0.00003
 936,0.00000183,0.00000187,0.00011196,-0.00001438,0.00001041,0.00010069
 ,0.00021788,0.00003459,-0.00006766,-0.00003752,-0.00000637,-0.00001578
 ,0.00006961,-0.00000706,-0.00000406,-0.00001021,0.00000034,0.00001355,
 -0.00000294,-0.00000033,-0.00000183,-0.00000840,-0.00000552,0.00000162
 ,-0.00000065,-0.00000193,-0.00071496,-0.00041070,-0.00062729,-0.000030
 15,-0.00003366,0.00001391,0.00083667,0.00004752,-0.00800109,0.00046722
 ,0.00027333,0.00028733,-0.00005313,0.00025110,0.00026405,-0.00003345,-
 0.00003969,0.00003286,-0.00005260,0.00001994,-0.00004926,-0.00159335,-
 0.00116532,0.00043420,0.00290854,-0.01362624,0.01502417,0.00000168,-0.
 00069886,0.00072786,0.00004148,-0.00064489,-0.00016204,-0.00008539,-0.
 00004601,0.00004777,0.00006316,0.00000633,0.00001809,0.00003327,0.0000
 2514,-0.00004366,-0.00007165,0.00016806,-0.00001283,0.00002186,-0.0000
 1133,0.00000492,-0.00000431,0.00000872,-0.00001742,0.00001411,0.000005
 54,-0.00001302,-0.04916054,0.02595051,-0.04549197,0.05786643,-0.000022
 60,0.00000039,-0.00000267,0.00002396,-0.00000939,0.00000564,-0.0000816
 6,0.00005910,-0.00003238,-0.00015172,-0.00021381,0.00022552,0.00007655
 ,0.00000430,0.00000044,0.00001217,-0.00005537,0.00000429,0.00000173,0.
 00000567,-0.00000112,-0.00001175,-0.00000176,-0.00000743,0.00000303,0.
 00001133,0.00000025,-0.00000750,-0.00000296,-0.00000121,0.00145563,0.0
 0003346,-0.00084410,-0.00009995,-0.00008703,-0.00009384,-0.00664997,0.
 00415313,-0.01583455,0.00020619,-0.00079765,-0.00181089,0.00019934,-0.
 00019666,-0.00038060,-0.00026671,0.00012580,0.00001719,0.00000374,0.00
 005085,0.00002573,-0.00132029,-0.00093241,0.00081020,-0.00474401,-0.01
 828301,0.02146972,-0.00017047,0.00026514,0.00025120,0.00012099,-0.0004
 6122,-0.00033890,-0.00008361,-0.00006042,0.00004511,-0.00000437,0.0000
 0864,0.00001736,0.00002945,0.00004309,-0.00001348,-0.00010973,0.000042
 22,-0.00003374,0.00000287,0.00003732,-0.00000371,-0.00000785,0.0000007
 7,0.00002301,-0.00000933,-0.00001585,0.00000633,0.02572215,-0.07434064
 ,0.07374621,-0.02436532,0.09824574,-0.00008420,0.00002673,-0.00000573,
 0.00010313,0.00010248,-0.00003053,-0.00019425,-0.00008299,0.00002355,0
 .00015972,0.00008405,0.00002163,0.00002850,0.00008690,-0.00000888,0.00
 006508,-0.00005441,-0.00000077,-0.00000797,-0.00002343,0.00000810,0.00
 001746,-0.00003306,0.00001645,-0.00002227,0.00001358,0.00000226,-0.000
 03478,-0.00000138,0.00000351,-0.00042297,-0.00056490,-0.00098692,0.000
 21401,0.00002896,-0.00011488,-0.01207350,-0.00219444,-0.03121147,0.000
 44823,-0.00217566,-0.00179949,0.00031084,-0.00035039,-0.00031990,0.000
 28327,0.00009070,0.00017128,-0.00012304,0.00022078,-0.00010524,0.00050
 773,0.00108606,-0.00041049,0.00466721,0.01685649,-0.01181219,0.0003313
 4,0.00011318,0.00029287,-0.00024354,-0.00018362,0.00011669,0.00001137,
 0.00007938,0.00000856,0.00007463,0.00001425,0.00002174,0.00001796,0.00
 001486,-0.00005557,0.00030315,-0.00042971,0.00011035,-0.00011106,0.000
 06548,-0.00008328,-0.00002821,0.00007143,0.00005704,-0.00003637,0.0000
 5167,-0.00004648,-0.04142289,0.07049221,-0.15209400,0.05125772,-0.0855
 9168,0.19774008,0.00019497,-0.00005538,0.00001470,-0.00019138,-0.00013
 513,0.00001685,0.00039486,0.00014146,-0.00002101,0.00002578,0.00048408
 ,-0.00007852,-0.00022300,-0.00016633,0.00002049,-0.00008303,0.00022934
 ,-0.00003385,0.00000005,0.00000085,-0.00000142,0.00000383,0.00001644,-
 0.00000483,0.00001418,-0.00004348,-0.00000835,0.00002706,-0.00000083,-
 0.00000205,0.00190415,-0.00340151,-0.00136620,-0.00030181,-0.00023182,
 0.00007392,0.00182121,0.00377702,0.00386413,-0.00028799,0.00027938,-0.
 00050771,-0.00003331,-0.00000777,0.00001336,-0.00083671,0.00135005,0.0
 0050253,0.00007053,-0.00014649,0.00007215,-0.00011736,-0.00087588,0.00
 081024,-0.03298932,-0.00294607,0.01085873,-0.00140120,-0.00109235,0.00
 048226,0.00015939,0.00020720,-0.00050242,0.00000978,-0.00007929,0.0000
 0496,-0.00007463,-0.00000899,-0.00000652,0.00004513,0.00004016,0.00003
 840,-0.00040890,-0.00005233,0.00046419,0.00030826,-0.00012022,0.000141
 32,0.00006626,0.00004983,-0.00002820,0.00005856,-0.00004511,0.00001431
 ,-0.15899137,0.07059807,0.03861438,-0.01068641,0.01050696,-0.00372411,
 0.20169679,0.00001949,0.00000453,0.00000040,0.00000088,0.00002577,0.00
 000816,0.00014712,-0.00004094,-0.00001646,0.00033877,0.00025842,-0.000
 09728,-0.00006605,0.00000829,0.00000318,0.00001694,0.00005516,0.000002
 62,-0.00000810,-0.00001758,0.00000020,0.00000864,-0.00000646,-0.000001
 34,-0.00002486,0.00001908,-0.00000654,-0.00001458,0.00000275,-0.000005
 13,-0.00232631,-0.00274151,-0.00306110,-0.00002673,-0.00030339,0.00006
 288,0.01341815,-0.01658192,-0.01510789,-0.00021867,-0.00064824,-0.0012
 6115,-0.00001660,0.00003537,-0.00000804,0.00002721,-0.00044573,-0.0001
 9881,-0.00003613,0.00003838,0.00009419,-0.00185165,-0.00004696,0.00055
 062,-0.01456860,0.00571192,0.00451983,-0.00117892,-0.00115956,0.000175
 70,0.00010982,-0.00034626,-0.00020773,-0.00004105,0.00000729,0.0000163
 6,0.00004723,0.00004072,-0.00000162,0.00001902,0.00006026,-0.00004710,
 0.00027996,-0.00048607,0.00027342,0.00023134,0.00008186,0.00046596,-0.
 00003364,-0.00055581,0.00015217,0.00000851,0.00002975,0.00001222,0.069
 71577,-0.06975407,-0.02007503,0.01430844,-0.00662408,0.00329822,-0.078
 27564,0.09358351,0.00009483,-0.00002168,0.00000914,-0.00006712,-0.0000
 2182,0.00000463,0.00028294,0.00000344,0.00001304,0.00049327,0.00060757
 ,-0.00040064,-0.00020071,-0.00003464,0.00000052,0.00000387,0.00014875,
 -0.00001399,-0.00000791,-0.00001839,0.00000297,0.00001160,-0.00000413,
 0.00000612,-0.00002502,0.00000450,0.00000327,-0.00000953,0.00000542,0.
 00000149,-0.00150279,-0.00480446,-0.00129643,-0.00009593,-0.00039930,0
 .00009232,0.01437080,-0.02041450,-0.01202849,-0.00052243,-0.00050964,-
 0.00152225,-0.00003054,0.00002412,0.00001948,0.00011584,0.00091329,-0.
 00001486,-0.00002327,0.00002821,0.00009793,0.00105163,0.00107504,-0.00
 041059,0.01390161,-0.00035877,0.00001500,0.00060627,0.00059332,-0.0000
 0016,-0.00030913,-0.00018958,0.00019626,0.00000330,0.00007371,0.000024
 99,0.00005072,-0.00000467,0.00003294,-0.00000087,-0.00001174,-0.000045
 39,0.00017516,0.00035709,-0.00045636,-0.00045648,0.00047587,-0.0005347
 9,-0.00004332,0.00040333,0.00000091,-0.00004893,0.00004786,-0.00006999
 ,0.03565593,-0.01782126,-0.04268869,-0.01344767,0.00937627,0.00214675,
 -0.05006027,0.03105648,0.05774147,-0.00017053,0.00005569,-0.00000995,0
 .00019316,0.00019403,0.00009941,-0.00050317,-0.00009550,0.00000102,-0.
 00166454,-0.00105405,-0.00207308,0.00004948,-0.00008736,0.00011570,0.0
 0001451,-0.00012752,0.00018033,-0.00000569,-0.00002679,-0.00002083,0.0
 0001206,-0.00003743,0.00000724,0.00000454,-0.00001009,-0.00003491,-0.0
 0003862,-0.00002192,-0.00003058,-0.02540218,-0.01489284,0.02296804,0.0
 0002472,0.00088803,-0.00001770,-0.04468104,-0.01774922,0.04172148,0.00
 425722,0.00792768,-0.00929931,-0.00006086,0.00069379,-0.00039035,-0.00
 006716,0.00013629,-0.00103647,-0.00029395,0.00065104,0.00038783,0.0002
 5975,-0.00035415,-0.00013057,-0.00048072,-0.00081734,-0.00073363,-0.00
 002780,-0.00010698,-0.00016614,-0.00005776,0.00016707,0.00010851,0.000
 01850,-0.00001030,-0.00001240,-0.00000698,-0.00003049,-0.00001924,0.00
 000014,-0.00004806,0.00000032,-0.00027990,-0.00012953,0.00004800,0.000
 00343,0.00038662,-0.00003574,0.00000772,0.00003604,-0.00000700,0.00002
 904,0.00000208,-0.00002048,0.00466561,0.00061434,-0.00130348,0.0000929
 1,-0.00025773,-0.00027221,-0.00017396,-0.00000999,0.00003540,0.0642818
 0,-0.00011250,0.00004973,-0.00001965,0.00016746,0.00019194,-0.00001093
 ,-0.00020666,-0.00006794,0.00025439,-0.00006166,-0.00041732,-0.0003849
 5,0.00002445,0.00008927,0.00003298,0.00010395,-0.00004797,0.00003679,-
 0.00001977,-0.00005177,0.00000716,0.00003692,-0.00005338,0.00001890,-0
 .00004916,0.00004278,-0.00001384,-0.00006897,-0.00000498,-0.00001070,-
 0.01484618,0.00090607,0.00611881,0.00144846,-0.00117889,0.00023521,-0.
 01741357,-0.05711947,0.06258216,0.00420462,-0.02501098,0.02391506,0.00
 051135,0.00001839,0.00020421,0.00148507,-0.00168130,0.00027036,-0.0000
 6449,-0.00022080,-0.00067661,-0.00030516,-0.00079840,-0.00034341,-0.00
 116244,-0.00091653,-0.00114883,-0.00010095,-0.00004682,-0.00016576,0.0
 0018774,0.00025157,0.00006310,0.00000604,-0.00004078,-0.00003406,-0.00
 003889,-0.00001232,-0.00003900,-0.00002619,-0.00003914,0.00002694,-0.0
 0020106,0.00031039,0.00020562,0.00044766,-0.00030329,-0.00006715,0.000
 04128,-0.00004230,-0.00005575,0.00004067,-0.00011428,0.00001812,0.0020
 8705,0.00465966,-0.01403360,-0.00023298,-0.00100453,-0.00111124,0.0000
 0360,-0.00020426,-0.00057966,0.02411437,0.08285843,0.00027703,-0.00011
 622,0.00003876,-0.00033589,-0.00034532,0.00008051,0.00045507,0.0003342
 3,-0.00005205,-0.00062098,-0.00054841,-0.00078322,-0.00007871,-0.00027
 016,0.00011290,-0.00017162,0.00018195,-0.00000405,0.00002490,0.0000656
 9,-0.00001497,-0.00004387,0.00007029,-0.00000260,0.00008299,-0.0000427
 0,0.00001337,0.00008022,-0.00000517,0.00000046,0.01699148,0.00486294,-
 0.00096150,-0.00088063,0.00006327,-0.00036473,0.03963462,0.06032166,-0
 .15188594,-0.00424560,0.01820916,-0.00901499,-0.00049473,0.00015672,0.
 00024682,-0.00219565,0.00133994,-0.00069118,0.00025767,-0.00040036,0.0
 0012391,0.00006001,-0.00078219,0.00027583,-0.00143855,-0.00136946,-0.0
 0172897,-0.00005033,-0.00000710,-0.00011674,0.00024625,0.00016694,-0.0
 0036805,-0.00000452,-0.00006648,0.00003089,-0.00007131,0.00000820,0.00
 002428,0.00000732,0.00003843,0.00009383,-0.00016051,0.00017067,-0.0003
 0504,0.00012031,-0.00027173,0.00019893,0.00001960,-0.00006541,-0.00001
 090,0.00002312,-0.00000089,0.00010383,0.00250575,-0.00477183,-0.033909
 56,-0.00027384,-0.00103385,-0.00165489,0.00033902,-0.00059754,-0.00092
 595,-0.05005888,-0.07529476,0.20145080\\-0.00000239,0.00000130,-0.0000
 0095,0.00000155,0.00000156,-0.00000103,0.00000019,-0.00000451,-0.00000
 054,-0.00000094,0.00000213,-0.00000029,0.00000182,0.00000130,0.0000000
 5,0.00000102,-0.00000267,-0.00000088,0.00000053,-0.00000039,-0.0000012
 4,-0.00000035,-0.00000067,-0.00000186,-0.00000041,-0.00000030,-0.00000
 002,-0.00000022,0.00000039,0.00000026,-0.00000003,-0.00000023,-0.00000
 056,-0.00000008,0.00000073,-0.00000018,0.00000090,-0.00000507,-0.00000
 161,-0.00000116,0.00000382,0.00000049,0.00000168,-0.00000015,-0.000000
 78,-0.00000092,0.00000143,-0.00000001,0.00000070,-0.00000053,-0.000000
 87,-0.00000171,0.00000137,0.00000060,0.00000402,-0.00000138,0.00000061
 ,-0.00000112,0.00000005,-0.00000070,-0.00000016,0.00000200,0.00000164,
 -0.00000001,-0.00000219,0.00000060,0.00000112,0.00000024,0.00000157,-0
 .00000020,0.00000087,-0.00000039,-0.00000106,0.00000128,0.00000180,-0.
 00000125,-0.00000059,0.00000033,0.00000042,-0.00000040,0.00000055,0.00
 000013,0.00000053,0.00000083,-0.00000128,-0.00000049,0.00000038,-0.000
 00039,-0.00000017,0.00000045,0.00000036,-0.00000059,0.00000142,-0.0000
 0074,0.00000131,0.00000034\\\@


 O WAD SOME POWER THE GIFTIE GIE US       
 TO SEE OURSELS AS OTHERS SEE US.....     
 IT WOULD FRAE MONIE A BLUNDER FREE US,   
                     AND FOOLISH NOTION...
 WHAT AIRS IN DRESS AND GAIT WAD LEA'E US,
                     AND EV'N DEVOTION....
                                          
              (ROBERT BURNS 'TO A LOUSE') 
 Job cpu time:       0 days  0 hours  0 minutes 37.0 seconds.
 File lengths (MBytes):  RWF=    159 Int=      0 D2E=      0 Chk=     12 Scr=      1
 Normal termination of Gaussian 09 at Mon Aug 10 22:47:04 2020.
