 Entering Gaussian System, Link 0=g09
 Input=sm_claisen_PM6_toluene.com
 Output=sm_claisen_PM6_toluene.log
 Initial command:
 /apps/applications/gaussian/G09.D01/2/default/g09/l1.exe "/local/695234.1.40core-192G.q/Gau-419741.inp" -scrdir="/local/695234.1.40core-192G.q/"
 Entering Link 1 = /apps/applications/gaussian/G09.D01/2/default/g09/l1.exe PID=    419746.
  
 Copyright (c) 1988,1990,1992,1993,1995,1998,2003,2009,2013,
            Gaussian, Inc.  All Rights Reserved.
  
 This is part of the Gaussian(R) 09 program.  It is based on
 the Gaussian(R) 03 system (copyright 2003, Gaussian, Inc.),
 the Gaussian(R) 98 system (copyright 1998, Gaussian, Inc.),
 the Gaussian(R) 94 system (copyright 1995, Gaussian, Inc.),
 the Gaussian 92(TM) system (copyright 1992, Gaussian, Inc.),
 the Gaussian 90(TM) system (copyright 1990, Gaussian, Inc.),
 the Gaussian 88(TM) system (copyright 1988, Gaussian, Inc.),
 the Gaussian 86(TM) system (copyright 1986, Carnegie Mellon
 University), and the Gaussian 82(TM) system (copyright 1983,
 Carnegie Mellon University). Gaussian is a federally registered
 trademark of Gaussian, Inc.
  
 This software contains proprietary and confidential information,
 including trade secrets, belonging to Gaussian, Inc.
  
 This software is provided under written license and may be
 used, copied, transmitted, or stored only in accord with that
 written license.
  
 The following legend is applicable only to US Government
 contracts under FAR:
  
                    RESTRICTED RIGHTS LEGEND
  
 Use, reproduction and disclosure by the US Government is
 subject to restrictions as set forth in subparagraphs (a)
 and (c) of the Commercial Computer Software - Restricted
 Rights clause in FAR 52.227-19.
  
 Gaussian, Inc.
 340 Quinnipiac St., Bldg. 40, Wallingford CT 06492
  
  
 ---------------------------------------------------------------
 Warning -- This program may not be used in any manner that
 competes with the business of Gaussian, Inc. or will provide
 assistance to any competitor of Gaussian, Inc.  The licensee
 of this program is prohibited from giving any competitor of
 Gaussian, Inc. access to this program.  By using this program,
 the user acknowledges that Gaussian, Inc. is engaged in the
 business of creating and licensing software in the field of
 computational chemistry and represents and warrants to the
 licensee that it is not a competitor of Gaussian, Inc. and that
 it will not use this program in any manner prohibited above.
 ---------------------------------------------------------------
  

 Cite this work as:
 Gaussian 09, Revision D.01,
 M. J. Frisch, G. W. Trucks, H. B. Schlegel, G. E. Scuseria, 
 M. A. Robb, J. R. Cheeseman, G. Scalmani, V. Barone, B. Mennucci, 
 G. A. Petersson, H. Nakatsuji, M. Caricato, X. Li, H. P. Hratchian, 
 A. F. Izmaylov, J. Bloino, G. Zheng, J. L. Sonnenberg, M. Hada, 
 M. Ehara, K. Toyota, R. Fukuda, J. Hasegawa, M. Ishida, T. Nakajima, 
 Y. Honda, O. Kitao, H. Nakai, T. Vreven, J. A. Montgomery, Jr., 
 J. E. Peralta, F. Ogliaro, M. Bearpark, J. J. Heyd, E. Brothers, 
 K. N. Kudin, V. N. Staroverov, T. Keith, R. Kobayashi, J. Normand, 
 K. Raghavachari, A. Rendell, J. C. Burant, S. S. Iyengar, J. Tomasi, 
 M. Cossi, N. Rega, J. M. Millam, M. Klene, J. E. Knox, J. B. Cross, 
 V. Bakken, C. Adamo, J. Jaramillo, R. Gomperts, R. E. Stratmann, 
 O. Yazyev, A. J. Austin, R. Cammi, C. Pomelli, J. W. Ochterski, 
 R. L. Martin, K. Morokuma, V. G. Zakrzewski, G. A. Voth, 
 P. Salvador, J. J. Dannenberg, S. Dapprich, A. D. Daniels, 
 O. Farkas, J. B. Foresman, J. V. Ortiz, J. Cioslowski, 
 and D. J. Fox, Gaussian, Inc., Wallingford CT, 2013.
 
 ******************************************
 Gaussian 09:  ES64L-G09RevD.01 24-Apr-2013
                10-Aug-2020 
 ******************************************
 %nprocshared=4
 Will use up to    4 processors via shared memory.
 %chk=sm_claisen_PM6_toluene.chk
 ----------------------------------------------------------------------
 # opt freq pm6 scrf=(cpcm,solvent=toluene) geom=connectivity empirical
 dispersion=gd3
 ----------------------------------------------------------------------
 1/14=-1,18=20,19=15,26=1,38=1,57=2/1,3;
 2/9=110,12=2,17=6,18=5,40=1/2;
 3/5=2,16=1,25=1,41=3900000,70=2101,71=1,72=13,124=31/1,2,3;
 4/35=1/1;
 5/5=2,35=1,38=5,53=13/2;
 6/7=2,8=2,9=2,10=2,28=1/1;
 7//1,2,3,16;
 1/14=-1,18=20,19=15,26=1/3(2);
 2/9=110/2;
 99//99;
 2/9=110/2;
 3/5=2,16=1,25=1,41=3900000,70=2105,71=1,72=13,124=31,135=20/1,2,3;
 4/5=5,16=3,35=1/1;
 5/5=2,35=1,38=5,53=13/2;
 7//1,2,3,16;
 1/14=-1,18=20,19=15,26=1/3(-5);
 2/9=110/2;
 6/7=2,8=2,9=2,10=2,19=2,28=1/1;
 99/9=1/99;
 -------------------
 Title Card Required
 -------------------
 Symbolic Z-matrix:
 Charge =  0 Multiplicity = 1
 C                    -3.09814  -0.11834  -0.61776 
 C                    -1.87079  -0.11903   0.05914 
 C                    -1.32922   1.08615   0.5255 
 C                    -2.01112   2.28828   0.31659 
 C                    -3.23821   2.2916   -0.3598 
 C                    -3.78205   1.08733  -0.82729 
 H                    -3.51301  -1.03786  -0.9745 
 H                    -1.34805  -1.03876   0.21954 
 H                    -3.75947   3.21235  -0.51924 
 H                    -4.71903   1.08824  -1.34399 
 C                    -1.40578   3.60474   0.83361 
 C                     0.01728   1.09602   1.26959 
 C                    -0.21714   3.59396   1.48775 
 H                     0.20089   4.51147   1.84595 
 C                     0.53568   2.2668    1.71839 
 H                     1.47242   2.26988   2.23552 
 O                    -2.09584   4.83969   0.62476 
 Cl                    0.88517  -0.41129   1.53864 
 C                    -1.14684   5.90434   0.52077 
 C                    -0.32552   5.98871   1.82074 
 H                     0.58141   5.4293    1.91783 
 C                    -0.20301   5.63658  -0.66628 
 H                     0.50708   6.4332   -0.74409 
 H                     0.31333   4.71253  -0.51001 
 H                    -0.77367   5.57796  -1.5695 
 C                    -1.88998   7.23429   0.29586 
 H                    -2.54576   7.42033   1.12063 
 H                    -1.17989   8.03091   0.21805 
 H                    -2.46064   7.17567  -0.60736 
 C                    -0.75144   6.77146   2.84175 
 H                    -0.18078   6.83008   3.74498 
 H                    -1.65837   7.33087   2.74466 
 

 GradGradGradGradGradGradGradGradGradGradGradGradGradGradGradGradGradGrad
 Berny optimization.
 Initialization pass.
                           ----------------------------
                           !    Initial Parameters    !
                           ! (Angstroms and Degrees)  !
 --------------------------                            --------------------------
 ! Name  Definition              Value          Derivative Info.                !
 --------------------------------------------------------------------------------
 ! R1    R(1,2)                  1.4016         estimate D2E/DX2                !
 ! R2    R(1,6)                  1.4019         estimate D2E/DX2                !
 ! R3    R(1,7)                  1.07           estimate D2E/DX2                !
 ! R4    R(2,3)                  1.4012         estimate D2E/DX2                !
 ! R5    R(2,8)                  1.07           estimate D2E/DX2                !
 ! R6    R(3,4)                  1.3978         estimate D2E/DX2                !
 ! R7    R(3,12)                 1.5384         estimate D2E/DX2                !
 ! R8    R(4,5)                  1.4012         estimate D2E/DX2                !
 ! R9    R(4,11)                 1.5384         estimate D2E/DX2                !
 ! R10   R(5,6)                  1.4016         estimate D2E/DX2                !
 ! R11   R(5,9)                  1.07           estimate D2E/DX2                !
 ! R12   R(6,10)                 1.07           estimate D2E/DX2                !
 ! R13   R(11,13)                1.3568         estimate D2E/DX2                !
 ! R14   R(11,17)                1.43           estimate D2E/DX2                !
 ! R15   R(12,15)                1.3568         estimate D2E/DX2                !
 ! R16   R(12,18)                1.76           estimate D2E/DX2                !
 ! R17   R(13,14)                1.07           estimate D2E/DX2                !
 ! R18   R(13,15)                1.5431         estimate D2E/DX2                !
 ! R19   R(15,16)                1.07           estimate D2E/DX2                !
 ! R20   R(17,19)                1.43           estimate D2E/DX2                !
 ! R21   R(19,20)                1.54           estimate D2E/DX2                !
 ! R22   R(19,22)                1.54           estimate D2E/DX2                !
 ! R23   R(19,26)                1.54           estimate D2E/DX2                !
 ! R24   R(20,21)                1.07           estimate D2E/DX2                !
 ! R25   R(20,30)                1.3552         estimate D2E/DX2                !
 ! R26   R(22,23)                1.07           estimate D2E/DX2                !
 ! R27   R(22,24)                1.07           estimate D2E/DX2                !
 ! R28   R(22,25)                1.07           estimate D2E/DX2                !
 ! R29   R(26,27)                1.07           estimate D2E/DX2                !
 ! R30   R(26,28)                1.07           estimate D2E/DX2                !
 ! R31   R(26,29)                1.07           estimate D2E/DX2                !
 ! R32   R(30,31)                1.07           estimate D2E/DX2                !
 ! R33   R(30,32)                1.07           estimate D2E/DX2                !
 ! A1    A(2,1,6)              119.9863         estimate D2E/DX2                !
 ! A2    A(2,1,7)              120.0069         estimate D2E/DX2                !
 ! A3    A(6,1,7)              120.0069         estimate D2E/DX2                !
 ! A4    A(1,2,3)              119.9189         estimate D2E/DX2                !
 ! A5    A(1,2,8)              120.0406         estimate D2E/DX2                !
 ! A6    A(3,2,8)              120.0406         estimate D2E/DX2                !
 ! A7    A(2,3,4)              120.0949         estimate D2E/DX2                !
 ! A8    A(2,3,12)             120.3175         estimate D2E/DX2                !
 ! A9    A(4,3,12)             119.5876         estimate D2E/DX2                !
 ! A10   A(3,4,5)              120.0949         estimate D2E/DX2                !
 ! A11   A(3,4,11)             119.5876         estimate D2E/DX2                !
 ! A12   A(5,4,11)             120.3175         estimate D2E/DX2                !
 ! A13   A(4,5,6)              119.9189         estimate D2E/DX2                !
 ! A14   A(4,5,9)              120.0406         estimate D2E/DX2                !
 ! A15   A(6,5,9)              120.0406         estimate D2E/DX2                !
 ! A16   A(1,6,5)              119.9863         estimate D2E/DX2                !
 ! A17   A(1,6,10)             120.0069         estimate D2E/DX2                !
 ! A18   A(5,6,10)             120.0069         estimate D2E/DX2                !
 ! A19   A(4,11,13)            119.9954         estimate D2E/DX2                !
 ! A20   A(4,11,17)            120.0023         estimate D2E/DX2                !
 ! A21   A(13,11,17)           120.0023         estimate D2E/DX2                !
 ! A22   A(3,12,15)            119.9954         estimate D2E/DX2                !
 ! A23   A(3,12,18)            120.0023         estimate D2E/DX2                !
 ! A24   A(15,12,18)           120.0023         estimate D2E/DX2                !
 ! A25   A(11,13,14)           119.7915         estimate D2E/DX2                !
 ! A26   A(11,13,15)           120.417          estimate D2E/DX2                !
 ! A27   A(14,13,15)           119.7915         estimate D2E/DX2                !
 ! A28   A(12,15,13)           120.417          estimate D2E/DX2                !
 ! A29   A(12,15,16)           119.7915         estimate D2E/DX2                !
 ! A30   A(13,15,16)           119.7915         estimate D2E/DX2                !
 ! A31   A(11,17,19)           109.4712         estimate D2E/DX2                !
 ! A32   A(17,19,20)           109.4712         estimate D2E/DX2                !
 ! A33   A(17,19,22)           109.4712         estimate D2E/DX2                !
 ! A34   A(17,19,26)           109.4712         estimate D2E/DX2                !
 ! A35   A(20,19,22)           109.4712         estimate D2E/DX2                !
 ! A36   A(20,19,26)           109.4712         estimate D2E/DX2                !
 ! A37   A(22,19,26)           109.4712         estimate D2E/DX2                !
 ! A38   A(19,20,21)           120.0            estimate D2E/DX2                !
 ! A39   A(19,20,30)           120.0            estimate D2E/DX2                !
 ! A40   A(21,20,30)           120.0            estimate D2E/DX2                !
 ! A41   A(19,22,23)           109.4712         estimate D2E/DX2                !
 ! A42   A(19,22,24)           109.4712         estimate D2E/DX2                !
 ! A43   A(19,22,25)           109.4712         estimate D2E/DX2                !
 ! A44   A(23,22,24)           109.4712         estimate D2E/DX2                !
 ! A45   A(23,22,25)           109.4712         estimate D2E/DX2                !
 ! A46   A(24,22,25)           109.4712         estimate D2E/DX2                !
 ! A47   A(19,26,27)           109.4712         estimate D2E/DX2                !
 ! A48   A(19,26,28)           109.4712         estimate D2E/DX2                !
 ! A49   A(19,26,29)           109.4712         estimate D2E/DX2                !
 ! A50   A(27,26,28)           109.4712         estimate D2E/DX2                !
 ! A51   A(27,26,29)           109.4712         estimate D2E/DX2                !
 ! A52   A(28,26,29)           109.4712         estimate D2E/DX2                !
 ! A53   A(20,30,31)           120.0            estimate D2E/DX2                !
 ! A54   A(20,30,32)           120.0            estimate D2E/DX2                !
 ! A55   A(31,30,32)           120.0            estimate D2E/DX2                !
 ! D1    D(6,1,2,3)             -0.0001         estimate D2E/DX2                !
 ! D2    D(6,1,2,8)            179.9998         estimate D2E/DX2                !
 ! D3    D(7,1,2,3)           -180.0            estimate D2E/DX2                !
 ! D4    D(7,1,2,8)             -0.0001         estimate D2E/DX2                !
 ! D5    D(2,1,6,5)              0.0            estimate D2E/DX2                !
 ! D6    D(2,1,6,10)          -179.9998         estimate D2E/DX2                !
 ! D7    D(7,1,6,5)            179.9998         estimate D2E/DX2                !
 ! D8    D(7,1,6,10)             0.0001         estimate D2E/DX2                !
 ! D9    D(1,2,3,4)              0.0001         estimate D2E/DX2                !
 ! D10   D(1,2,3,12)           179.9999         estimate D2E/DX2                !
 ! D11   D(8,2,3,4)           -179.9998         estimate D2E/DX2                !
 ! D12   D(8,2,3,12)             0.0            estimate D2E/DX2                !
 ! D13   D(2,3,4,5)              0.0            estimate D2E/DX2                !
 ! D14   D(2,3,4,11)           179.9997         estimate D2E/DX2                !
 ! D15   D(12,3,4,5)          -179.9998         estimate D2E/DX2                !
 ! D16   D(12,3,4,11)            0.0            estimate D2E/DX2                !
 ! D17   D(2,3,12,15)         -179.9997         estimate D2E/DX2                !
 ! D18   D(2,3,12,18)            0.0002         estimate D2E/DX2                !
 ! D19   D(4,3,12,15)            0.0            estimate D2E/DX2                !
 ! D20   D(4,3,12,18)          179.9999         estimate D2E/DX2                !
 ! D21   D(3,4,5,6)             -0.0001         estimate D2E/DX2                !
 ! D22   D(3,4,5,9)           -180.0            estimate D2E/DX2                !
 ! D23   D(11,4,5,6)          -179.9999         estimate D2E/DX2                !
 ! D24   D(11,4,5,9)             0.0003         estimate D2E/DX2                !
 ! D25   D(3,4,11,13)            0.0001         estimate D2E/DX2                !
 ! D26   D(3,4,11,17)         -179.9999         estimate D2E/DX2                !
 ! D27   D(5,4,11,13)          179.9999         estimate D2E/DX2                !
 ! D28   D(5,4,11,17)           -0.0001         estimate D2E/DX2                !
 ! D29   D(4,5,6,1)              0.0001         estimate D2E/DX2                !
 ! D30   D(4,5,6,10)           179.9999         estimate D2E/DX2                !
 ! D31   D(9,5,6,1)           -180.0            estimate D2E/DX2                !
 ! D32   D(9,5,6,10)            -0.0002         estimate D2E/DX2                !
 ! D33   D(4,11,13,14)         179.9998         estimate D2E/DX2                !
 ! D34   D(4,11,13,15)          -0.0003         estimate D2E/DX2                !
 ! D35   D(17,11,13,14)         -0.0002         estimate D2E/DX2                !
 ! D36   D(17,11,13,15)        179.9997         estimate D2E/DX2                !
 ! D37   D(4,11,17,19)        -150.0            estimate D2E/DX2                !
 ! D38   D(13,11,17,19)         30.0            estimate D2E/DX2                !
 ! D39   D(3,12,15,13)          -0.0001         estimate D2E/DX2                !
 ! D40   D(3,12,15,16)         179.9999         estimate D2E/DX2                !
 ! D41   D(18,12,15,13)        179.9999         estimate D2E/DX2                !
 ! D42   D(18,12,15,16)         -0.0001         estimate D2E/DX2                !
 ! D43   D(11,13,15,12)          0.0003         estimate D2E/DX2                !
 ! D44   D(11,13,15,16)       -179.9997         estimate D2E/DX2                !
 ! D45   D(14,13,15,12)       -179.9998         estimate D2E/DX2                !
 ! D46   D(14,13,15,16)          0.0002         estimate D2E/DX2                !
 ! D47   D(11,17,19,20)        -60.0            estimate D2E/DX2                !
 ! D48   D(11,17,19,22)         60.0            estimate D2E/DX2                !
 ! D49   D(11,17,19,26)       -180.0            estimate D2E/DX2                !
 ! D50   D(17,19,20,21)         90.0            estimate D2E/DX2                !
 ! D51   D(17,19,20,30)        -90.0            estimate D2E/DX2                !
 ! D52   D(22,19,20,21)        -30.0            estimate D2E/DX2                !
 ! D53   D(22,19,20,30)        150.0            estimate D2E/DX2                !
 ! D54   D(26,19,20,21)       -150.0            estimate D2E/DX2                !
 ! D55   D(26,19,20,30)         30.0            estimate D2E/DX2                !
 ! D56   D(17,19,22,23)        180.0            estimate D2E/DX2                !
 ! D57   D(17,19,22,24)        -60.0            estimate D2E/DX2                !
 ! D58   D(17,19,22,25)         60.0            estimate D2E/DX2                !
 ! D59   D(20,19,22,23)        -60.0            estimate D2E/DX2                !
 ! D60   D(20,19,22,24)         60.0            estimate D2E/DX2                !
 ! D61   D(20,19,22,25)        180.0            estimate D2E/DX2                !
 ! D62   D(26,19,22,23)         60.0            estimate D2E/DX2                !
 ! D63   D(26,19,22,24)        180.0            estimate D2E/DX2                !
 ! D64   D(26,19,22,25)        -60.0            estimate D2E/DX2                !
 ! D65   D(17,19,26,27)         60.0            estimate D2E/DX2                !
 ! D66   D(17,19,26,28)        180.0            estimate D2E/DX2                !
 ! D67   D(17,19,26,29)        -60.0            estimate D2E/DX2                !
 ! D68   D(20,19,26,27)        -60.0            estimate D2E/DX2                !
 ! D69   D(20,19,26,28)         60.0            estimate D2E/DX2                !
 ! D70   D(20,19,26,29)       -180.0            estimate D2E/DX2                !
 ! D71   D(22,19,26,27)       -180.0            estimate D2E/DX2                !
 ! D72   D(22,19,26,28)        -60.0            estimate D2E/DX2                !
 ! D73   D(22,19,26,29)         60.0            estimate D2E/DX2                !
 ! D74   D(19,20,30,31)        179.9999         estimate D2E/DX2                !
 ! D75   D(19,20,30,32)         -0.0002         estimate D2E/DX2                !
 ! D76   D(21,20,30,31)         -0.0001         estimate D2E/DX2                !
 ! D77   D(21,20,30,32)        179.9998         estimate D2E/DX2                !
 --------------------------------------------------------------------------------
 Trust Radius=3.00D-01 FncErr=1.00D-07 GrdErr=1.00D-07
 Number of steps in this run=    175 maximum allowed number of steps=    192.
 GradGradGradGradGradGradGradGradGradGradGradGradGradGradGradGradGradGrad

                          Input orientation:                          
 ---------------------------------------------------------------------
 Center     Atomic      Atomic             Coordinates (Angstroms)
 Number     Number       Type             X           Y           Z
 ---------------------------------------------------------------------
      1          6           0       -3.098144   -0.118341   -0.617762
      2          6           0       -1.870786   -0.119029    0.059138
      3          6           0       -1.329217    1.086148    0.525500
      4          6           0       -2.011122    2.288282    0.316586
      5          6           0       -3.238207    2.291605   -0.359796
      6          6           0       -3.782055    1.087330   -0.827291
      7          1           0       -3.513010   -1.037865   -0.974501
      8          1           0       -1.348048   -1.038765    0.219544
      9          1           0       -3.759468    3.212346   -0.519242
     10          1           0       -4.719031    1.088236   -1.343987
     11          6           0       -1.405783    3.604745    0.833608
     12          6           0        0.017280    1.096018    1.269589
     13          6           0       -0.217142    3.593956    1.487749
     14          1           0        0.200887    4.511474    1.845954
     15          6           0        0.535682    2.266796    1.718392
     16          1           0        1.472416    2.269881    2.235518
     17          8           0       -2.095845    4.839694    0.624764
     18         17           0        0.885167   -0.411292    1.538640
     19          6           0       -1.146840    5.904342    0.520773
     20          6           0       -0.325523    5.988706    1.820742
     21          1           0        0.581415    5.429296    1.917829
     22          6           0       -0.203010    5.636578   -0.666277
     23          1           0        0.507084    6.433203   -0.744088
     24          1           0        0.313330    4.712526   -0.510009
     25          1           0       -0.773666    5.577962   -1.569502
     26          6           0       -1.889983    7.234288    0.295863
     27          1           0       -2.545761    7.420331    1.120631
     28          1           0       -1.179889    8.030913    0.218052
     29          1           0       -2.460639    7.175671   -0.607362
     30          6           0       -0.751437    6.771461    2.841750
     31          1           0       -0.180782    6.830077    3.744976
     32          1           0       -1.658373    7.330873    2.744662
 ---------------------------------------------------------------------
                    Distance matrix (angstroms):
                    1          2          3          4          5
     1  C    0.000000
     2  C    1.401642   0.000000
     3  C    2.426303   1.401157   0.000000
     4  C    2.801153   2.425102   1.397772   0.000000
     5  C    2.427757   2.802945   2.425102   1.401157   0.000000
     6  C    1.401884   2.427757   2.801153   2.426303   1.401642
     7  H    1.070000   2.146991   3.395642   3.871153   3.396873
     8  H    2.147346   1.070000   2.146909   3.393866   3.872944
     9  H    3.397136   3.872944   3.393866   2.146909   1.070000
    10  H    2.147209   3.396873   3.871153   3.395642   2.146991
    11  C    4.339577   3.831778   2.538528   1.538448   2.550750
    12  C    3.839613   2.550750   1.538448   2.538528   3.831778
    13  C    5.149223   4.308331   2.907186   2.508938   3.773111
    14  H    6.195861   5.378299   3.977144   3.489202   4.649787
    15  C    4.934692   3.773111   2.508938   2.907186   4.308331
    16  H    5.893626   4.649787   3.489202   3.977144   5.378299
    17  O    5.208703   4.995949   3.832320   2.571353   2.960930
    18  Cl   4.539015   3.141596   2.858719   4.143622   5.283174
    19  C    6.432462   6.084259   4.821647   3.723515   4.266273
    20  C    7.136509   6.541828   5.169152   4.335535   5.187199
    21  H    7.123528   6.344441   4.944899   4.376208   5.442627
    22  C    6.442302   6.036118   4.836847   3.930188   4.527162
    23  H    7.479062   7.016494   5.794381   4.964551   5.597118
    24  H    5.914984   5.332748   4.113496   3.458799   4.300794
    25  H    6.225502   6.025931   4.987391   3.988812   4.282230
    26  C    7.507031   7.357151   6.177929   4.947532   5.165047
    27  H    7.756205   7.643579   6.477348   5.222093   5.382841
    28  H    8.413598   8.180717   6.953170   5.803315   6.124560
    29  H    7.321826   7.348796   6.296490   4.994229   4.951768
    30  C    8.058824   7.514967   6.166168   5.297373   6.041774
    31  H    8.707755   8.045594   6.684059   5.977617   6.840667
    32  H    8.298773   7.922007   6.635481   5.607826   6.125990
                    6          7          8          9         10
     6  C    0.000000
     7  H    2.147209   0.000000
     8  H    3.397136   2.472409   0.000000
     9  H    2.147346   4.281622   4.942944   0.000000
    10  H    1.070000   2.472107   4.281622   2.472409   0.000000
    11  C    3.839613   5.409574   4.684292   2.742994   4.695993
    12  C    4.339577   4.695993   2.742994   4.684292   5.409574
    13  C    4.934692   6.195093   4.934510   4.089219   5.879146
    14  H    5.893626   7.248666   5.987450   4.792317   6.789689
    15  C    5.149223   5.879146   4.089219   4.934510   6.195093
    16  H    6.195861   6.789689   4.792317   5.987450   7.248666
    17  O    4.362568   6.253935   5.939670   2.593194   4.983023
    18  Cl   5.443019   5.104159   2.668518   6.240053   6.478052
    19  C    5.653781   7.485242   6.952550   3.892853   6.279551
    20  C    6.556156   8.206470   7.279748   4.997568   7.302947
    21  H    6.740046   8.182546   6.960087   5.449537   7.588081
    22  C    5.790608   7.456493   6.830519   4.306613   6.445243
    23  H    6.854342   8.487114   7.758892   5.350509   7.499389
    24  H    5.478584   6.922688   6.030734   4.340312   6.257447
    25  H    5.455920   7.185207   6.878348   3.951481   5.981171
    26  C    6.528897   8.525054   8.291134   4.509477   6.961793
    27  H    6.740158   8.767339   8.590854   4.676474   7.133924
    28  H    7.488481   9.439722   9.071236   5.515108   7.947720
    29  H    6.233972   8.288815   8.330582   4.171651   6.534510
    30  C    7.413222   9.120067   8.260239   5.745592   8.096990
    31  H    8.176425   9.761235   8.701140   6.639166   8.914145
    32  H    7.500047   9.343855   8.747763   5.659500   8.065680
                   11         12         13         14         15
    11  C    0.000000
    12  C    2.917001   0.000000
    13  C    1.356792   2.518380   0.000000
    14  H    2.104375   3.468609   1.070000   0.000000
    15  C    2.518380   1.356792   1.543144   2.273091   0.000000
    16  H    3.468609   2.104375   2.273091   2.606394   1.070000
    17  O    1.430000   4.346976   2.413738   2.621834   3.839370
    18  Cl   4.676973   1.760000   4.154477   4.979589   2.706770
    19  C    2.335180   5.003587   2.671567   2.347884   4.182932
    20  C    2.797261   4.935552   2.420219   1.568425   3.821618
    21  H    2.907487   4.417665   2.047227   0.996175   3.169113
    22  C    2.797261   4.940930   2.968558   2.782139   4.193775
    23  H    3.761431   5.725413   3.683331   3.239617   4.839792
    24  H    2.447005   4.041502   2.350241   2.367198   3.316143
    25  H    3.173027   5.364127   3.686839   3.708436   4.846490
    26  C    3.700973   6.501088   4.179833   3.766727   5.708188
    27  H    3.992572   6.825563   4.494262   4.065910   6.034198
    28  H    4.474472   7.115596   4.714404   4.116194   6.198326
    29  H    3.992572   6.828266   4.717145   4.494489   6.203558
    30  C    3.806428   5.939130   3.495044   2.646899   4.817740
    31  H    4.514361   6.248695   3.945742   3.021237   5.044194
    32  H    4.195231   6.622467   4.197801   3.494787   5.613554
                   16         17         18         19         20
    16  H    0.000000
    17  O    4.683050   0.000000
    18  Cl   2.831817   6.106918   0.000000
    19  C    4.796892   1.430000   6.712104   0.000000
    20  C    4.151419   2.425826   6.519610   1.540000   0.000000
    21  H    3.297987   3.031067   5.860761   2.272510   1.070000
    22  C    4.749960   2.425826   6.528593   1.540000   2.514809
    23  H    5.209912   3.344887   7.225020   2.148263   2.732978
    24  H    3.853299   2.666083   5.547744   2.148263   2.732978
    25  H    5.519644   2.666083   6.948629   2.148263   3.444314
    26  C    6.301851   2.425826   8.228052   1.540000   2.514809
    27  H    6.626905   2.666083   8.560393   2.148263   2.732978
    28  H    6.655403   3.344887   8.790860   2.148263   2.732978
    29  H    6.900556   2.666083   8.565148   2.148263   3.444314
    30  C    5.057398   3.233294   7.481211   2.509019   1.355200
    31  H    5.080051   4.167111   7.644710   3.490808   2.105120
    32  H    5.972831   3.300201   8.238034   2.691159   2.105120
                   21         22         23         24         25
    21  H    0.000000
    22  C    2.708485   0.000000
    23  H    2.845902   1.070000   0.000000
    24  H    2.545589   1.070000   1.747303   0.000000
    25  H    3.744306   1.070000   1.747303   1.747303   0.000000
    26  C    3.463607   2.514809   2.732978   3.444314   2.732978
    27  H    3.791962   3.444314   3.710993   4.262112   3.710993
    28  H    3.572092   2.732978   2.514809   3.710993   3.062243
    29  H    4.322095   2.732978   3.062243   3.710993   2.514810
    30  C    2.105120   3.727598   3.815302   4.075197   4.569911
    31  H    2.425200   4.569911   4.558768   4.778395   5.492084
    32  H    3.052261   4.077158   4.203141   4.619116   4.739981
                   26         27         28         29         30
    26  C    0.000000
    27  H    1.070000   0.000000
    28  H    1.070000   1.747303   0.000000
    29  H    1.070000   1.747303   1.747303   0.000000
    30  C    2.827019   2.569607   2.941697   3.870547   0.000000
    31  H    3.870547   3.581719   3.857384   4.925447   1.070000
    32  H    2.461623   1.852818   2.665101   3.450186   1.070000
                   31         32
    31  H    0.000000
    32  H    1.853294   0.000000
 Stoichiometry    C15H15ClO
 Framework group  C1[X(C15H15ClO)]
 Deg. of freedom    90
 Full point group                 C1      NOp   1
 Largest Abelian subgroup         C1      NOp   1
 Largest concise Abelian subgroup C1      NOp   1
                         Standard orientation:                         
 ---------------------------------------------------------------------
 Center     Atomic      Atomic             Coordinates (Angstroms)
 Number     Number       Type             X           Y           Z
 ---------------------------------------------------------------------
      1          6           0        3.194781    2.302015   -0.121542
      2          6           0        3.160523    0.903138   -0.040485
      3          6           0        1.931229    0.231364   -0.068755
      4          6           0        0.739841    0.954209   -0.177630
      5          6           0        0.771437    2.352656   -0.258811
      6          6           0        1.999887    3.026987   -0.230737
      7          1           0        4.132753    2.816456   -0.100082
      8          1           0        4.072008    0.348931    0.042878
      9          1           0       -0.141103    2.905130   -0.342133
     10          1           0        2.025656    4.094884   -0.292640
     11          6           0       -0.603358    0.204716   -0.207608
     12          6           0        1.882944   -1.303785    0.019602
     13          6           0       -0.626339   -1.149577   -0.128571
     14          1           0       -1.562381   -1.667532   -0.149716
     15          6           0        0.688958   -1.947600   -0.008375
     16          1           0        0.659175   -3.015406    0.053293
     17          8           0       -1.827566    0.935372   -0.318768
     18         17           0        3.376414   -2.224805    0.156965
     19          6           0       -2.872851    0.217469    0.342212
     20          6           0       -3.039440   -1.166048   -0.313324
     21          1           0       -2.479138   -2.001649    0.051002
     22          6           0       -2.513577    0.041001    1.829283
     23          1           0       -3.295713   -0.496170    2.323863
     24          1           0       -1.597561   -0.505713    1.912459
     25          1           0       -2.397830    1.002277    2.284753
     26          6           0       -4.191230    1.004329    0.222502
     27          1           0       -4.440856    1.126940   -0.810723
     28          1           0       -4.973366    0.467157    0.717081
     29          1           0       -4.075483    1.965604    0.677972
     30          6           0       -3.895683   -1.325220   -1.351629
     31          1           0       -4.011429   -2.286495   -1.807100
     32          1           0       -4.455987   -0.489620   -1.715953
 ---------------------------------------------------------------------
 Rotational constants (GHZ):      0.6878016      0.2819836      0.2158819
 Standard basis: VSTO-6G (5D, 7F)
 There are    89 symmetry adapted cartesian basis functions of A   symmetry.
 There are    88 symmetry adapted basis functions of A   symmetry.
    88 basis functions,   534 primitive gaussians,    89 cartesian basis functions
    44 alpha electrons       44 beta electrons
       nuclear repulsion energy       642.8362368467 Hartrees.
 Integral buffers will be    131072 words long.
 Regular integral format.
 Two-electron integral symmetry is turned off.
 Nuclear repulsion after empirical dispersion term =      642.8262451888 Hartrees.
 ------------------------------------------------------------------------------
 Polarizable Continuum Model (PCM)
 =================================
 Model                : C-PCM.
 Atomic radii         : UFF (Universal Force Field).
 Polarization charges : Total charges.
 Charge compensation  : None.
 Solution method      : On-the-fly selection.
 Cavity type          : Scaled VdW (van der Waals Surface) (Alpha=1.100).
 Cavity algorithm     : GePol (No added spheres)
                        Default sphere list used, NSphG=   32.
                        Lebedev-Laikov grids with approx.  5.0 points / Ang**2.
                        Smoothing algorithm: Karplus/York (Gamma=1.0000).
                        Polarization charges: spherical gaussians, with
                                              point-specific exponents (IZeta= 3).
                        Self-potential: point-specific (ISelfS= 7).
                        Self-field    : sphere-specific E.n sum rule (ISelfD= 2).
 1st derivatives      : Analytical E(r).r(x)/FMM algorithm (CHGder, D1EAlg=3).
                        Cavity 1st derivative terms included.
 Solvent              : Toluene, Eps=   2.374100 Eps(inf)=   2.238315
 ------------------------------------------------------------------------------
 Do NDO integrals.
 One-electron integrals computed using PRISM.
 PrsmSu:  requested number of processors reduced to:   2 ShMem   1 Linda.
 NBasis=    88 RedAO= F EigKep=  0.00D+00  NBF=    88
 NBsUse=    88 1.00D-04 EigRej=  0.00D+00 NBFU=    88
 Nonelectrostatic core Hamiltonian diagonalized for initial guess.
 Overlap will be assumed to be unity.
 Keep J ints in memory in canonical form, NReq=10007929.
 Requested convergence on RMS density matrix=1.00D-08 within 128 cycles.
 Requested convergence on MAX density matrix=1.00D-06.
 Requested convergence on             energy=1.00D-06.
 No special actions if energy rises.
 Inv3:  Mode=1 IEnd=    16356675.
 Iteration    1 A*A^-1 deviation from unit magnitude is 7.66D-15 for   2333.
 Iteration    1 A*A^-1 deviation from orthogonality  is 2.59D-15 for   2332   2291.
 Iteration    1 A^-1*A deviation from unit magnitude is 7.66D-15 for   2333.
 Iteration    1 A^-1*A deviation from orthogonality  is 3.09D-15 for   2320   1346.
 Error on total polarization charges = -0.00004
 SCF Done:  E(RPM6D3) =  0.854977833811E-01 A.U. after   22 cycles
            NFock= 21  Conv=0.70D-08     -V/T= 1.0015

 **********************************************************************

            Population analysis using the SCF density.

 **********************************************************************

 Orbital symmetries:
       Occupied  (A) (A) (A) (A) (A) (A) (A) (A) (A) (A) (A) (A)
                 (A) (A) (A) (A) (A) (A) (A) (A) (A) (A) (A) (A)
                 (A) (A) (A) (A) (A) (A) (A) (A) (A) (A) (A) (A)
                 (A) (A) (A) (A) (A) (A) (A) (A)
       Virtual   (A) (A) (A) (A) (A) (A) (A) (A) (A) (A) (A) (A)
                 (A) (A) (A) (A) (A) (A) (A) (A) (A) (A) (A) (A)
                 (A) (A) (A) (A) (A) (A) (A) (A) (A) (A) (A) (A)
                 (A) (A) (A) (A) (A) (A) (A) (A)
 The electronic state is 1-A.
 Alpha  occ. eigenvalues --   -1.15870  -1.11462  -1.06478  -1.05665  -1.00943
 Alpha  occ. eigenvalues --   -0.98185  -0.96441  -0.95762  -0.93481  -0.89339
 Alpha  occ. eigenvalues --   -0.84414  -0.80708  -0.78715  -0.75851  -0.74381
 Alpha  occ. eigenvalues --   -0.67992  -0.65146  -0.62505  -0.61094  -0.59716
 Alpha  occ. eigenvalues --   -0.58620  -0.56902  -0.55933  -0.54428  -0.53920
 Alpha  occ. eigenvalues --   -0.53088  -0.52541  -0.51466  -0.50371  -0.49645
 Alpha  occ. eigenvalues --   -0.49115  -0.48554  -0.46981  -0.46560  -0.45788
 Alpha  occ. eigenvalues --   -0.44850  -0.43652  -0.42244  -0.41018  -0.39895
 Alpha  occ. eigenvalues --   -0.38248  -0.37751  -0.36067  -0.33071
 Alpha virt. eigenvalues --   -0.02128  -0.01305   0.01206   0.01696   0.02254
 Alpha virt. eigenvalues --    0.04765   0.05611   0.08979   0.10858   0.11263
 Alpha virt. eigenvalues --    0.11993   0.12579   0.13285   0.13665   0.14785
 Alpha virt. eigenvalues --    0.15735   0.15927   0.16626   0.16812   0.17230
 Alpha virt. eigenvalues --    0.17657   0.18273   0.18635   0.19466   0.19706
 Alpha virt. eigenvalues --    0.20535   0.20958   0.21128   0.21183   0.21258
 Alpha virt. eigenvalues --    0.21483   0.21955   0.22117   0.22296   0.22364
 Alpha virt. eigenvalues --    0.22552   0.24624   0.24953   0.25203   3.24289
 Alpha virt. eigenvalues --    3.24381   3.24403   3.25753   3.25801
          Condensed to atoms (all electrons):
               1          2          3          4          5          6
     1  C    4.111028   0.000000   0.000000   0.000000   0.000000   0.000000
     2  C    0.000000   4.178461   0.000000   0.000000   0.000000   0.000000
     3  C    0.000000   0.000000   3.953918   0.000000   0.000000   0.000000
     4  C    0.000000   0.000000   0.000000   4.066514   0.000000   0.000000
     5  C    0.000000   0.000000   0.000000   0.000000   4.116411   0.000000
     6  C    0.000000   0.000000   0.000000   0.000000   0.000000   4.159659
     7  H    0.000000   0.000000   0.000000   0.000000   0.000000   0.000000
     8  H    0.000000   0.000000   0.000000   0.000000   0.000000   0.000000
     9  H    0.000000   0.000000   0.000000   0.000000   0.000000   0.000000
    10  H    0.000000   0.000000   0.000000   0.000000   0.000000   0.000000
    11  C    0.000000   0.000000   0.000000   0.000000   0.000000   0.000000
    12  C    0.000000   0.000000   0.000000   0.000000   0.000000   0.000000
    13  C    0.000000   0.000000   0.000000   0.000000   0.000000   0.000000
    14  H    0.000000   0.000000   0.000000   0.000000   0.000000   0.000000
    15  C    0.000000   0.000000   0.000000   0.000000   0.000000   0.000000
    16  H    0.000000   0.000000   0.000000   0.000000   0.000000   0.000000
    17  O    0.000000   0.000000   0.000000   0.000000   0.000000   0.000000
    18  Cl   0.000000   0.000000   0.000000   0.000000   0.000000   0.000000
    19  C    0.000000   0.000000   0.000000   0.000000   0.000000   0.000000
    20  C    0.000000   0.000000   0.000000   0.000000   0.000000   0.000000
    21  H    0.000000   0.000000   0.000000   0.000000   0.000000   0.000000
    22  C    0.000000   0.000000   0.000000   0.000000   0.000000   0.000000
    23  H    0.000000   0.000000   0.000000   0.000000   0.000000   0.000000
    24  H    0.000000   0.000000   0.000000   0.000000   0.000000   0.000000
    25  H    0.000000   0.000000   0.000000   0.000000   0.000000   0.000000
    26  C    0.000000   0.000000   0.000000   0.000000   0.000000   0.000000
    27  H    0.000000   0.000000   0.000000   0.000000   0.000000   0.000000
    28  H    0.000000   0.000000   0.000000   0.000000   0.000000   0.000000
    29  H    0.000000   0.000000   0.000000   0.000000   0.000000   0.000000
    30  C    0.000000   0.000000   0.000000   0.000000   0.000000   0.000000
    31  H    0.000000   0.000000   0.000000   0.000000   0.000000   0.000000
    32  H    0.000000   0.000000   0.000000   0.000000   0.000000   0.000000
               7          8          9         10         11         12
     1  C    0.000000   0.000000   0.000000   0.000000   0.000000   0.000000
     2  C    0.000000   0.000000   0.000000   0.000000   0.000000   0.000000
     3  C    0.000000   0.000000   0.000000   0.000000   0.000000   0.000000
     4  C    0.000000   0.000000   0.000000   0.000000   0.000000   0.000000
     5  C    0.000000   0.000000   0.000000   0.000000   0.000000   0.000000
     6  C    0.000000   0.000000   0.000000   0.000000   0.000000   0.000000
     7  H    0.847607   0.000000   0.000000   0.000000   0.000000   0.000000
     8  H    0.000000   0.833157   0.000000   0.000000   0.000000   0.000000
     9  H    0.000000   0.000000   0.836545   0.000000   0.000000   0.000000
    10  H    0.000000   0.000000   0.000000   0.843988   0.000000   0.000000
    11  C    0.000000   0.000000   0.000000   0.000000   3.701333   0.000000
    12  C    0.000000   0.000000   0.000000   0.000000   0.000000   4.034849
    13  C    0.000000   0.000000   0.000000   0.000000   0.000000   0.000000
    14  H    0.000000   0.000000   0.000000   0.000000   0.000000   0.000000
    15  C    0.000000   0.000000   0.000000   0.000000   0.000000   0.000000
    16  H    0.000000   0.000000   0.000000   0.000000   0.000000   0.000000
    17  O    0.000000   0.000000   0.000000   0.000000   0.000000   0.000000
    18  Cl   0.000000   0.000000   0.000000   0.000000   0.000000   0.000000
    19  C    0.000000   0.000000   0.000000   0.000000   0.000000   0.000000
    20  C    0.000000   0.000000   0.000000   0.000000   0.000000   0.000000
    21  H    0.000000   0.000000   0.000000   0.000000   0.000000   0.000000
    22  C    0.000000   0.000000   0.000000   0.000000   0.000000   0.000000
    23  H    0.000000   0.000000   0.000000   0.000000   0.000000   0.000000
    24  H    0.000000   0.000000   0.000000   0.000000   0.000000   0.000000
    25  H    0.000000   0.000000   0.000000   0.000000   0.000000   0.000000
    26  C    0.000000   0.000000   0.000000   0.000000   0.000000   0.000000
    27  H    0.000000   0.000000   0.000000   0.000000   0.000000   0.000000
    28  H    0.000000   0.000000   0.000000   0.000000   0.000000   0.000000
    29  H    0.000000   0.000000   0.000000   0.000000   0.000000   0.000000
    30  C    0.000000   0.000000   0.000000   0.000000   0.000000   0.000000
    31  H    0.000000   0.000000   0.000000   0.000000   0.000000   0.000000
    32  H    0.000000   0.000000   0.000000   0.000000   0.000000   0.000000
              13         14         15         16         17         18
     1  C    0.000000   0.000000   0.000000   0.000000   0.000000   0.000000
     2  C    0.000000   0.000000   0.000000   0.000000   0.000000   0.000000
     3  C    0.000000   0.000000   0.000000   0.000000   0.000000   0.000000
     4  C    0.000000   0.000000   0.000000   0.000000   0.000000   0.000000
     5  C    0.000000   0.000000   0.000000   0.000000   0.000000   0.000000
     6  C    0.000000   0.000000   0.000000   0.000000   0.000000   0.000000
     7  H    0.000000   0.000000   0.000000   0.000000   0.000000   0.000000
     8  H    0.000000   0.000000   0.000000   0.000000   0.000000   0.000000
     9  H    0.000000   0.000000   0.000000   0.000000   0.000000   0.000000
    10  H    0.000000   0.000000   0.000000   0.000000   0.000000   0.000000
    11  C    0.000000   0.000000   0.000000   0.000000   0.000000   0.000000
    12  C    0.000000   0.000000   0.000000   0.000000   0.000000   0.000000
    13  C    4.418006   0.000000   0.000000   0.000000   0.000000   0.000000
    14  H    0.000000   0.758880   0.000000   0.000000   0.000000   0.000000
    15  C    0.000000   0.000000   4.078713   0.000000   0.000000   0.000000
    16  H    0.000000   0.000000   0.000000   0.840592   0.000000   0.000000
    17  O    0.000000   0.000000   0.000000   0.000000   6.429530   0.000000
    18  Cl   0.000000   0.000000   0.000000   0.000000   0.000000   7.106125
    19  C    0.000000   0.000000   0.000000   0.000000   0.000000   0.000000
    20  C    0.000000   0.000000   0.000000   0.000000   0.000000   0.000000
    21  H    0.000000   0.000000   0.000000   0.000000   0.000000   0.000000
    22  C    0.000000   0.000000   0.000000   0.000000   0.000000   0.000000
    23  H    0.000000   0.000000   0.000000   0.000000   0.000000   0.000000
    24  H    0.000000   0.000000   0.000000   0.000000   0.000000   0.000000
    25  H    0.000000   0.000000   0.000000   0.000000   0.000000   0.000000
    26  C    0.000000   0.000000   0.000000   0.000000   0.000000   0.000000
    27  H    0.000000   0.000000   0.000000   0.000000   0.000000   0.000000
    28  H    0.000000   0.000000   0.000000   0.000000   0.000000   0.000000
    29  H    0.000000   0.000000   0.000000   0.000000   0.000000   0.000000
    30  C    0.000000   0.000000   0.000000   0.000000   0.000000   0.000000
    31  H    0.000000   0.000000   0.000000   0.000000   0.000000   0.000000
    32  H    0.000000   0.000000   0.000000   0.000000   0.000000   0.000000
              19         20         21         22         23         24
     1  C    0.000000   0.000000   0.000000   0.000000   0.000000   0.000000
     2  C    0.000000   0.000000   0.000000   0.000000   0.000000   0.000000
     3  C    0.000000   0.000000   0.000000   0.000000   0.000000   0.000000
     4  C    0.000000   0.000000   0.000000   0.000000   0.000000   0.000000
     5  C    0.000000   0.000000   0.000000   0.000000   0.000000   0.000000
     6  C    0.000000   0.000000   0.000000   0.000000   0.000000   0.000000
     7  H    0.000000   0.000000   0.000000   0.000000   0.000000   0.000000
     8  H    0.000000   0.000000   0.000000   0.000000   0.000000   0.000000
     9  H    0.000000   0.000000   0.000000   0.000000   0.000000   0.000000
    10  H    0.000000   0.000000   0.000000   0.000000   0.000000   0.000000
    11  C    0.000000   0.000000   0.000000   0.000000   0.000000   0.000000
    12  C    0.000000   0.000000   0.000000   0.000000   0.000000   0.000000
    13  C    0.000000   0.000000   0.000000   0.000000   0.000000   0.000000
    14  H    0.000000   0.000000   0.000000   0.000000   0.000000   0.000000
    15  C    0.000000   0.000000   0.000000   0.000000   0.000000   0.000000
    16  H    0.000000   0.000000   0.000000   0.000000   0.000000   0.000000
    17  O    0.000000   0.000000   0.000000   0.000000   0.000000   0.000000
    18  Cl   0.000000   0.000000   0.000000   0.000000   0.000000   0.000000
    19  C    3.582740   0.000000   0.000000   0.000000   0.000000   0.000000
    20  C    0.000000   4.275696   0.000000   0.000000   0.000000   0.000000
    21  H    0.000000   0.000000   0.810989   0.000000   0.000000   0.000000
    22  C    0.000000   0.000000   0.000000   4.582024   0.000000   0.000000
    23  H    0.000000   0.000000   0.000000   0.000000   0.825071   0.000000
    24  H    0.000000   0.000000   0.000000   0.000000   0.000000   0.820592
    25  H    0.000000   0.000000   0.000000   0.000000   0.000000   0.000000
    26  C    0.000000   0.000000   0.000000   0.000000   0.000000   0.000000
    27  H    0.000000   0.000000   0.000000   0.000000   0.000000   0.000000
    28  H    0.000000   0.000000   0.000000   0.000000   0.000000   0.000000
    29  H    0.000000   0.000000   0.000000   0.000000   0.000000   0.000000
    30  C    0.000000   0.000000   0.000000   0.000000   0.000000   0.000000
    31  H    0.000000   0.000000   0.000000   0.000000   0.000000   0.000000
    32  H    0.000000   0.000000   0.000000   0.000000   0.000000   0.000000
              25         26         27         28         29         30
     1  C    0.000000   0.000000   0.000000   0.000000   0.000000   0.000000
     2  C    0.000000   0.000000   0.000000   0.000000   0.000000   0.000000
     3  C    0.000000   0.000000   0.000000   0.000000   0.000000   0.000000
     4  C    0.000000   0.000000   0.000000   0.000000   0.000000   0.000000
     5  C    0.000000   0.000000   0.000000   0.000000   0.000000   0.000000
     6  C    0.000000   0.000000   0.000000   0.000000   0.000000   0.000000
     7  H    0.000000   0.000000   0.000000   0.000000   0.000000   0.000000
     8  H    0.000000   0.000000   0.000000   0.000000   0.000000   0.000000
     9  H    0.000000   0.000000   0.000000   0.000000   0.000000   0.000000
    10  H    0.000000   0.000000   0.000000   0.000000   0.000000   0.000000
    11  C    0.000000   0.000000   0.000000   0.000000   0.000000   0.000000
    12  C    0.000000   0.000000   0.000000   0.000000   0.000000   0.000000
    13  C    0.000000   0.000000   0.000000   0.000000   0.000000   0.000000
    14  H    0.000000   0.000000   0.000000   0.000000   0.000000   0.000000
    15  C    0.000000   0.000000   0.000000   0.000000   0.000000   0.000000
    16  H    0.000000   0.000000   0.000000   0.000000   0.000000   0.000000
    17  O    0.000000   0.000000   0.000000   0.000000   0.000000   0.000000
    18  Cl   0.000000   0.000000   0.000000   0.000000   0.000000   0.000000
    19  C    0.000000   0.000000   0.000000   0.000000   0.000000   0.000000
    20  C    0.000000   0.000000   0.000000   0.000000   0.000000   0.000000
    21  H    0.000000   0.000000   0.000000   0.000000   0.000000   0.000000
    22  C    0.000000   0.000000   0.000000   0.000000   0.000000   0.000000
    23  H    0.000000   0.000000   0.000000   0.000000   0.000000   0.000000
    24  H    0.000000   0.000000   0.000000   0.000000   0.000000   0.000000
    25  H    0.823912   0.000000   0.000000   0.000000   0.000000   0.000000
    26  C    0.000000   4.532261   0.000000   0.000000   0.000000   0.000000
    27  H    0.000000   0.000000   0.827530   0.000000   0.000000   0.000000
    28  H    0.000000   0.000000   0.000000   0.823971   0.000000   0.000000
    29  H    0.000000   0.000000   0.000000   0.000000   0.827145   0.000000
    30  C    0.000000   0.000000   0.000000   0.000000   0.000000   4.261147
    31  H    0.000000   0.000000   0.000000   0.000000   0.000000   0.000000
    32  H    0.000000   0.000000   0.000000   0.000000   0.000000   0.000000
              31         32
     1  C    0.000000   0.000000
     2  C    0.000000   0.000000
     3  C    0.000000   0.000000
     4  C    0.000000   0.000000
     5  C    0.000000   0.000000
     6  C    0.000000   0.000000
     7  H    0.000000   0.000000
     8  H    0.000000   0.000000
     9  H    0.000000   0.000000
    10  H    0.000000   0.000000
    11  C    0.000000   0.000000
    12  C    0.000000   0.000000
    13  C    0.000000   0.000000
    14  H    0.000000   0.000000
    15  C    0.000000   0.000000
    16  H    0.000000   0.000000
    17  O    0.000000   0.000000
    18  Cl   0.000000   0.000000
    19  C    0.000000   0.000000
    20  C    0.000000   0.000000
    21  H    0.000000   0.000000
    22  C    0.000000   0.000000
    23  H    0.000000   0.000000
    24  H    0.000000   0.000000
    25  H    0.000000   0.000000
    26  C    0.000000   0.000000
    27  H    0.000000   0.000000
    28  H    0.000000   0.000000
    29  H    0.000000   0.000000
    30  C    0.000000   0.000000
    31  H    0.848525   0.000000
    32  H    0.000000   0.843079
 Mulliken charges:
               1
     1  C   -0.111028
     2  C   -0.178461
     3  C    0.046082
     4  C   -0.066514
     5  C   -0.116411
     6  C   -0.159659
     7  H    0.152393
     8  H    0.166843
     9  H    0.163455
    10  H    0.156012
    11  C    0.298667
    12  C   -0.034849
    13  C   -0.418006
    14  H    0.241120
    15  C   -0.078713
    16  H    0.159408
    17  O   -0.429530
    18  Cl  -0.106125
    19  C    0.417260
    20  C   -0.275696
    21  H    0.189011
    22  C   -0.582024
    23  H    0.174929
    24  H    0.179408
    25  H    0.176088
    26  C   -0.532261
    27  H    0.172470
    28  H    0.176029
    29  H    0.172855
    30  C   -0.261147
    31  H    0.151475
    32  H    0.156921
 Sum of Mulliken charges =   0.00000
 Mulliken charges with hydrogens summed into heavy atoms:
               1
     1  C    0.041365
     2  C   -0.011618
     3  C    0.046082
     4  C   -0.066514
     5  C    0.047044
     6  C   -0.003647
    11  C    0.298667
    12  C   -0.034849
    13  C   -0.176887
    15  C    0.080695
    17  O   -0.429530
    18  Cl  -0.106125
    19  C    0.417260
    20  C   -0.086685
    22  C   -0.051599
    26  C   -0.010908
    30  C    0.047249
 Charge=              0.0000 electrons
 Dipole moment (field-independent basis, Debye):
    X=             -2.7925    Y=              0.4306    Z=              0.8301  Tot=              2.9450
 N-N= 6.428262451888D+02 E-N=-1.172292030911D+03  KE=-5.652238882139D+01
 PrsmSu:  requested number of processors reduced to:   1 ShMem   1 Linda.
 D1PCM: C-PCM CHGder 1st derivatives, ID1Alg=3 FixD1E=F DoIter=F DoCFld=F I1PDM=0.
 Calling FoFJK, ICntrl=      2127 FMM=F ISym2X=0 I1Cent= 0 IOpClX= 0 NMat=1 NMatS=1 NMatT=0.
 ***** Axes restored to original set *****
 -------------------------------------------------------------------
 Center     Atomic                   Forces (Hartrees/Bohr)
 Number     Number              X              Y              Z
 -------------------------------------------------------------------
      1        6           0.012424517    0.006655325    0.007783028
      2        6          -0.012632567    0.004090411   -0.006529936
      3        6           0.054742039   -0.010698177    0.029029968
      4        6           0.010315686    0.057527252    0.014848490
      5        6          -0.002564517   -0.014920583   -0.003549750
      6        6           0.010352446    0.009155259    0.006890635
      7        1          -0.003788338   -0.008920547   -0.003303060
      8        1           0.004108813   -0.009623204    0.000977783
      9        1          -0.004703279    0.010033859   -0.001150518
     10        1          -0.008807559    0.000216981   -0.004821713
     11        6          -0.017496211   -0.037549231   -0.008025549
     12        6          -0.037411037    0.009947245   -0.019252235
     13        6           0.004032276   -0.124305061   -0.007428552
     14        1           0.013507633   -0.081489670    0.013668307
     15        6          -0.039492748    0.033814257   -0.016414699
     16        1           0.005689320    0.008596547    0.004407003
     17        8          -0.002301404   -0.044806633    0.000020544
     18       17          -0.014785762    0.019457358   -0.005586986
     19        6           0.029061879    0.033769597    0.001794381
     20        6          -0.051688980    0.097580596    0.018059537
     21        1           0.050502657    0.059416851    0.004122222
     22        6          -0.012608180    0.005532891    0.012897482
     23        1           0.011051319    0.008588615   -0.004400172
     24        1           0.011678599   -0.011130779   -0.006573445
     25        1          -0.004272776   -0.001829677   -0.014018918
     26        6           0.001397050   -0.027518875   -0.000436627
     27        1          -0.012357950    0.006236181    0.009187629
     28        1           0.007460068    0.012329499   -0.001878085
     29        1          -0.009654811    0.002661794   -0.011562829
     30        6           0.014941544   -0.022819032   -0.023975720
     31        1          -0.001515204    0.004640803    0.006745180
     32        1          -0.005184522    0.005360151    0.008476606
 -------------------------------------------------------------------
 Cartesian Forces:  Max     0.124305061 RMS     0.026141868

 GradGradGradGradGradGradGradGradGradGradGradGradGradGradGradGradGradGrad
 Berny optimization.
 FormGI is forming the generalized inverse of G from B-inverse, IUseBI=4.
 Internal  Forces:  Max     0.691324713 RMS     0.068660519
 Search for a local minimum.
 Step number   1 out of a maximum of  175
 All quantities printed in internal units (Hartrees-Bohrs-Radians)
 Mixed Optimization -- RFO/linear search
 Second derivative matrix not updated -- first step.
 ITU=  0
     Eigenvalues ---    0.00237   0.00237   0.00237   0.00776   0.00831
     Eigenvalues ---    0.01215   0.01295   0.01295   0.01365   0.01438
     Eigenvalues ---    0.01454   0.01513   0.01517   0.01956   0.02065
     Eigenvalues ---    0.02066   0.02066   0.02070   0.02070   0.02071
     Eigenvalues ---    0.02113   0.02681   0.02681   0.05151   0.05720
     Eigenvalues ---    0.05720   0.05720   0.05720   0.06045   0.06851
     Eigenvalues ---    0.16000   0.16000   0.16000   0.16000   0.16000
     Eigenvalues ---    0.16000   0.16000   0.16000   0.16000   0.16000
     Eigenvalues ---    0.16000   0.16000   0.16000   0.16000   0.16000
     Eigenvalues ---    0.16311   0.17031   0.22000   0.22000   0.22530
     Eigenvalues ---    0.22589   0.24432   0.24510   0.25000   0.25000
     Eigenvalues ---    0.25000   0.25000   0.27849   0.28290   0.28519
     Eigenvalues ---    0.28519   0.28519   0.28571   0.29539   0.37230
     Eigenvalues ---    0.37230   0.37230   0.37230   0.37230   0.37230
     Eigenvalues ---    0.37230   0.37230   0.37230   0.37230   0.37230
     Eigenvalues ---    0.37230   0.37230   0.37230   0.37230   0.40401
     Eigenvalues ---    0.40989   0.40989   0.41344   0.44931   0.45336
     Eigenvalues ---    0.45390   0.45406   0.51263   0.52863   0.53930
 RFO step:  Lambda=-7.74058400D-01 EMin= 2.36824092D-03
 Linear search not attempted -- first point.
 Maximum step size (   0.300) exceeded in Quadratic search.
    -- Step size scaled by   0.364
 Iteration  1 RMS(Cart)=  0.19132331 RMS(Int)=  0.01184685
 Iteration  2 RMS(Cart)=  0.11411181 RMS(Int)=  0.00273683
 Iteration  3 RMS(Cart)=  0.00612985 RMS(Int)=  0.00010513
 Iteration  4 RMS(Cart)=  0.00000787 RMS(Int)=  0.00010509
 Iteration  5 RMS(Cart)=  0.00000000 RMS(Int)=  0.00010509
 Variable       Old X    -DE/DX   Delta X   Delta X   Delta X     New X
                                 (Linear)    (Quad)   (Total)
    R1        2.64872  -0.00987   0.00000  -0.00296  -0.00296   2.64576
    R2        2.64918   0.00184   0.00000   0.00049   0.00049   2.64967
    R3        2.02201   0.01024   0.00000   0.00325   0.00325   2.02526
    R4        2.64780   0.00504   0.00000   0.00151   0.00151   2.64931
    R5        2.02201   0.01042   0.00000   0.00331   0.00331   2.02532
    R6        2.64141   0.00072   0.00000   0.00037   0.00038   2.64179
    R7        2.90724  -0.08278   0.00000  -0.02852  -0.02852   2.87872
    R8        2.64780   0.00644   0.00000   0.00194   0.00195   2.64975
    R9        2.90724  -0.03507   0.00000  -0.01183  -0.01182   2.89543
   R10        2.64872  -0.00736   0.00000  -0.00220  -0.00220   2.64652
   R11        2.02201   0.01110   0.00000   0.00353   0.00353   2.02553
   R12        2.02201   0.01004   0.00000   0.00319   0.00319   2.02520
   R13        2.56396   0.00915   0.00000   0.00261   0.00262   2.56659
   R14        2.70231   0.09797   0.00000   0.03014   0.03014   2.73245
   R15        2.56396  -0.03520   0.00000  -0.00996  -0.00997   2.55399
   R16        3.32592  -0.02481   0.00000  -0.00845  -0.00845   3.31747
   R17        2.02201  -0.06002   0.00000  -0.01907  -0.01907   2.00293
   R18        2.91612  -0.06495   0.00000  -0.02252  -0.02253   2.89359
   R19        2.02201   0.00713   0.00000   0.00227   0.00227   2.02427
   R20        2.70231   0.14791   0.00000   0.04550   0.04550   2.74781
   R21        2.91018   0.02300   0.00000   0.00791   0.00791   2.91809
   R22        2.91018   0.01271   0.00000   0.00437   0.00437   2.91455
   R23        2.91018   0.00160   0.00000   0.00055   0.00055   2.91073
   R24        2.02201   0.01212   0.00000   0.00385   0.00385   2.02586
   R25        2.56096  -0.01659   0.00000  -0.00460  -0.00460   2.55636
   R26        2.02201   0.01405   0.00000   0.00446   0.00446   2.02647
   R27        2.02201   0.01429   0.00000   0.00454   0.00454   2.02655
   R28        2.02201   0.01421   0.00000   0.00452   0.00452   2.02652
   R29        2.02201   0.01574   0.00000   0.00500   0.00500   2.02701
   R30        2.02201   0.01427   0.00000   0.00453   0.00453   2.02654
   R31        2.02201   0.01476   0.00000   0.00469   0.00469   2.02670
   R32        2.02201   0.00514   0.00000   0.00163   0.00163   2.02364
   R33        2.02201   0.00643   0.00000   0.00204   0.00204   2.02405
    A1        2.09416  -0.00065   0.00000  -0.00033  -0.00033   2.09382
    A2        2.09451   0.00008   0.00000   0.00007   0.00007   2.09459
    A3        2.09451   0.00057   0.00000   0.00026   0.00026   2.09478
    A4        2.09298  -0.00127   0.00000  -0.00047  -0.00047   2.09251
    A5        2.09510  -0.00070   0.00000  -0.00029  -0.00029   2.09482
    A6        2.09510   0.00198   0.00000   0.00076   0.00076   2.09586
    A7        2.09605   0.00654   0.00000   0.00243   0.00243   2.09848
    A8        2.09994   0.00298   0.00000   0.00101   0.00101   2.10094
    A9        2.08720  -0.00951   0.00000  -0.00344  -0.00344   2.08376
   A10        2.09605  -0.01146   0.00000  -0.00411  -0.00412   2.09194
   A11        2.08720   0.03801   0.00000   0.01377   0.01379   2.10099
   A12        2.09994  -0.02655   0.00000  -0.00966  -0.00968   2.09026
   A13        2.09298   0.00535   0.00000   0.00200   0.00200   2.09498
   A14        2.09510  -0.00367   0.00000  -0.00139  -0.00139   2.09371
   A15        2.09510  -0.00167   0.00000  -0.00061  -0.00061   2.09449
   A16        2.09416   0.00151   0.00000   0.00048   0.00048   2.09464
   A17        2.09451  -0.00054   0.00000  -0.00016  -0.00016   2.09436
   A18        2.09451  -0.00097   0.00000  -0.00032  -0.00032   2.09419
   A19        2.09432  -0.06570   0.00000  -0.02310  -0.02308   2.07123
   A20        2.09444  -0.22854   0.00000  -0.08142  -0.08143   2.01300
   A21        2.09444   0.29424   0.00000   0.10452   0.10451   2.19894
   A22        2.09432  -0.00474   0.00000  -0.00208  -0.00210   2.09221
   A23        2.09444  -0.00361   0.00000  -0.00109  -0.00108   2.09336
   A24        2.09444   0.00835   0.00000   0.00317   0.00318   2.09761
   A25        2.09076   0.04210   0.00000   0.01681   0.01681   2.10756
   A26        2.10167   0.02972   0.00000   0.01081   0.01081   2.11248
   A27        2.09076  -0.07182   0.00000  -0.02762  -0.02762   2.06314
   A28        2.10167   0.01222   0.00000   0.00404   0.00402   2.10569
   A29        2.09076   0.00263   0.00000   0.00139   0.00140   2.09216
   A30        2.09076  -0.01485   0.00000  -0.00543  -0.00542   2.08534
   A31        1.91063   0.69132   0.00000   0.24590   0.24590   2.15653
   A32        1.91063   0.11230   0.00000   0.04635   0.04603   1.95666
   A33        1.91063  -0.00971   0.00000  -0.00246  -0.00279   1.90784
   A34        1.91063  -0.07023   0.00000  -0.02923  -0.02891   1.88172
   A35        1.91063   0.00410   0.00000   0.00306   0.00287   1.91350
   A36        1.91063  -0.07327   0.00000  -0.02967  -0.02943   1.88120
   A37        1.91063   0.03681   0.00000   0.01195   0.01191   1.92254
   A38        2.09440   0.03671   0.00000   0.01421   0.01419   2.10859
   A39        2.09440  -0.00894   0.00000  -0.00328  -0.00329   2.09110
   A40        2.09440  -0.02776   0.00000  -0.01093  -0.01095   2.08345
   A41        1.91063   0.00296   0.00000   0.00114   0.00114   1.91177
   A42        1.91063   0.01294   0.00000   0.00507   0.00507   1.91570
   A43        1.91063   0.00249   0.00000   0.00096   0.00096   1.91159
   A44        1.91063  -0.00721   0.00000  -0.00278  -0.00279   1.90784
   A45        1.91063  -0.00398   0.00000  -0.00160  -0.00160   1.90903
   A46        1.91063  -0.00720   0.00000  -0.00279  -0.00279   1.90784
   A47        1.91063   0.00594   0.00000   0.00232   0.00232   1.91295
   A48        1.91063   0.00218   0.00000   0.00086   0.00085   1.91149
   A49        1.91063   0.00374   0.00000   0.00144   0.00144   1.91208
   A50        1.91063  -0.00334   0.00000  -0.00128  -0.00128   1.90936
   A51        1.91063  -0.00520   0.00000  -0.00204  -0.00204   1.90859
   A52        1.91063  -0.00331   0.00000  -0.00130  -0.00130   1.90933
   A53        2.09440   0.00267   0.00000   0.00104   0.00104   2.09544
   A54        2.09440   0.00788   0.00000   0.00307   0.00307   2.09747
   A55        2.09440  -0.01056   0.00000  -0.00412  -0.00412   2.09028
    D1        0.00000   0.00004   0.00000   0.00002   0.00002   0.00002
    D2        3.14159  -0.00022   0.00000  -0.00010  -0.00009   3.14150
    D3       -3.14159   0.00010   0.00000   0.00005   0.00004  -3.14155
    D4        0.00000  -0.00016   0.00000  -0.00007  -0.00007  -0.00007
    D5        0.00000   0.00010   0.00000   0.00005   0.00004   0.00004
    D6       -3.14159  -0.00006   0.00000  -0.00003  -0.00003   3.14156
    D7        3.14159   0.00004   0.00000   0.00002   0.00002  -3.14158
    D8        0.00000  -0.00013   0.00000  -0.00006  -0.00006  -0.00005
    D9        0.00000  -0.00015   0.00000  -0.00006  -0.00006  -0.00006
   D10        3.14159  -0.00068   0.00000  -0.00032  -0.00028   3.14131
   D11       -3.14159   0.00012   0.00000   0.00006   0.00005  -3.14154
   D12        0.00000  -0.00042   0.00000  -0.00020  -0.00017  -0.00017
   D13        0.00000   0.00011   0.00000   0.00005   0.00003   0.00003
   D14        3.14159   0.00134   0.00000   0.00061   0.00061  -3.14099
   D15       -3.14159   0.00065   0.00000   0.00030   0.00025  -3.14133
   D16        0.00000   0.00187   0.00000   0.00086   0.00083   0.00083
   D17       -3.14159   0.00230   0.00000   0.00106   0.00105  -3.14054
   D18        0.00000  -0.00018   0.00000  -0.00008  -0.00009  -0.00008
   D19        0.00000   0.00176   0.00000   0.00081   0.00082   0.00082
   D20        3.14159  -0.00071   0.00000  -0.00033  -0.00031   3.14128
   D21        0.00000   0.00003   0.00000   0.00001   0.00003   0.00003
   D22       -3.14159   0.00028   0.00000   0.00013   0.00014  -3.14146
   D23       -3.14159  -0.00120   0.00000  -0.00055  -0.00054   3.14105
   D24        0.00000  -0.00096   0.00000  -0.00044  -0.00044  -0.00043
   D25        0.00000  -0.00521   0.00000  -0.00240  -0.00235  -0.00235
   D26       -3.14159   0.00354   0.00000   0.00165   0.00144  -3.14015
   D27        3.14159  -0.00398   0.00000  -0.00184  -0.00177   3.13982
   D28        0.00000   0.00477   0.00000   0.00221   0.00202   0.00202
   D29        0.00000  -0.00014   0.00000  -0.00006  -0.00007  -0.00007
   D30        3.14159   0.00003   0.00000   0.00001   0.00001  -3.14159
   D31       -3.14159  -0.00039   0.00000  -0.00018  -0.00017   3.14142
   D32        0.00000  -0.00022   0.00000  -0.00010  -0.00010  -0.00010
   D33        3.14159   0.01113   0.00000   0.00513   0.00520  -3.13640
   D34        0.00000   0.00477   0.00000   0.00220   0.00219   0.00218
   D35        0.00000   0.00238   0.00000   0.00109   0.00096   0.00096
   D36        3.14159  -0.00398   0.00000  -0.00185  -0.00205   3.13954
   D37       -2.61799   0.03282   0.00000   0.01519   0.01516  -2.60284
   D38        0.52360   0.04157   0.00000   0.01924   0.01927   0.54287
   D39        0.00000  -0.00226   0.00000  -0.00103  -0.00101  -0.00101
   D40        3.14159  -0.00392   0.00000  -0.00179  -0.00180   3.13979
   D41        3.14159   0.00021   0.00000   0.00010   0.00012  -3.14147
   D42        0.00000  -0.00144   0.00000  -0.00065  -0.00066  -0.00067
   D43        0.00000  -0.00110   0.00000  -0.00052  -0.00056  -0.00056
   D44       -3.14159   0.00056   0.00000   0.00024   0.00023  -3.14136
   D45       -3.14159  -0.00746   0.00000  -0.00345  -0.00350   3.13810
   D46        0.00000  -0.00580   0.00000  -0.00270  -0.00271  -0.00271
   D47       -1.04720  -0.12618   0.00000  -0.05689  -0.05728  -1.10447
   D48        1.04720  -0.05833   0.00000  -0.02626  -0.02619   1.02101
   D49       -3.14159  -0.06220   0.00000  -0.03103  -0.03072   3.11087
   D50        1.57080   0.07420   0.00000   0.03335   0.03380   1.60460
   D51       -1.57080   0.05055   0.00000   0.02239   0.02278  -1.54801
   D52       -0.52360   0.01481   0.00000   0.00611   0.00595  -0.51764
   D53        2.61799  -0.00885   0.00000  -0.00485  -0.00507   2.61293
   D54       -2.61799   0.01208   0.00000   0.00776   0.00756  -2.61044
   D55        0.52360  -0.01157   0.00000  -0.00319  -0.00347   0.52013
   D56        3.14159  -0.06875   0.00000  -0.02944  -0.02932   3.11227
   D57       -1.04720  -0.06785   0.00000  -0.02904  -0.02892  -1.07612
   D58        1.04720  -0.06722   0.00000  -0.02877  -0.02865   1.01855
   D59       -1.04720   0.06536   0.00000   0.02769   0.02758  -1.01962
   D60        1.04720   0.06626   0.00000   0.02809   0.02798   1.07518
   D61       -3.14159   0.06689   0.00000   0.02836   0.02826  -3.11334
   D62        1.04720   0.00067   0.00000   0.00055   0.00053   1.04773
   D63        3.14159   0.00158   0.00000   0.00094   0.00093  -3.14066
   D64       -1.04720   0.00220   0.00000   0.00122   0.00121  -1.04599
   D65        1.04720   0.02679   0.00000   0.01119   0.01144   1.05863
   D66        3.14159   0.02766   0.00000   0.01157   0.01182  -3.12977
   D67       -1.04720   0.02723   0.00000   0.01138   0.01163  -1.03557
   D68       -1.04720  -0.02287   0.00000  -0.00951  -0.00975  -1.05695
   D69        1.04720  -0.02200   0.00000  -0.00913  -0.00937   1.03783
   D70       -3.14159  -0.02243   0.00000  -0.00932  -0.00955   3.13204
   D71       -3.14159  -0.00557   0.00000  -0.00241  -0.00242   3.13917
   D72       -1.04720  -0.00470   0.00000  -0.00203  -0.00204  -1.04924
   D73        1.04720  -0.00513   0.00000  -0.00222  -0.00223   1.04497
   D74        3.14159   0.01205   0.00000   0.00558   0.00553  -3.13606
   D75        0.00000   0.01334   0.00000   0.00617   0.00612   0.00612
   D76        0.00000  -0.01160   0.00000  -0.00538  -0.00533  -0.00533
   D77        3.14159  -0.01031   0.00000  -0.00479  -0.00474   3.13685
         Item               Value     Threshold  Converged?
 Maximum Force            0.691325     0.000450     NO 
 RMS     Force            0.068661     0.000300     NO 
 Maximum Displacement     1.210660     0.001800     NO 
 RMS     Displacement     0.300151     0.001200     NO 
 Predicted change in Energy=-2.704109D-01
 GradGradGradGradGradGradGradGradGradGradGradGradGradGradGradGradGradGrad

                          Input orientation:                          
 ---------------------------------------------------------------------
 Center     Atomic      Atomic             Coordinates (Angstroms)
 Number     Number       Type             X           Y           Z
 ---------------------------------------------------------------------
      1          6           0       -3.213894   -0.021496   -0.645566
      2          6           0       -1.997233   -0.182885    0.028152
      3          6           0       -1.326274    0.938016    0.536952
      4          6           0       -1.867707    2.216536    0.373956
      5          6           0       -3.086207    2.377819   -0.300856
      6          6           0       -3.758748    1.259934   -0.810130
      7          1           0       -3.728443   -0.877049   -1.035250
      8          1           0       -1.579978   -1.161957    0.154530
      9          1           0       -3.502761    3.357360   -0.426869
     10          1           0       -4.689999    1.384039   -1.325771
     11          6           0       -1.136817    3.443913    0.927999
     12          6           0       -0.002040    0.775083    1.272115
     13          6           0        0.040828    3.261971    1.579688
     14          1           0        0.571760    4.087250    1.980227
     15          6           0        0.635570    1.862481    1.759565
     16          1           0        1.565924    1.747682    2.277958
     17          8           0       -1.794696    4.711142    0.699756
     18         17           0        0.690745   -0.823800    1.485426
     19          6           0       -1.082481    5.967228    0.528453
     20          6           0       -0.288395    6.362146    1.792565
     21          1           0        0.736230    6.069950    1.911009
     22          6           0       -0.120988    5.848827   -0.671646
     23          1           0        0.384801    6.782796   -0.819431
     24          1           0        0.602214    5.079934   -0.482354
     25          1           0       -0.678007    5.602252   -1.554227
     26          6           0       -2.126432    7.068799    0.265392
     27          1           0       -2.791515    7.141944    1.103775
     28          1           0       -1.628402    8.007782    0.122855
     29          1           0       -2.689395    6.826988   -0.614846
     30          6           0       -0.884936    7.096573    2.759380
     31          1           0       -0.336452    7.376970    3.635333
     32          1           0       -1.906773    7.399222    2.652300
 ---------------------------------------------------------------------
                    Distance matrix (angstroms):
                    1          2          3          4          5
     1  C    0.000000
     2  C    1.400074   0.000000
     3  C    2.425308   1.401957   0.000000
     4  C    2.803646   2.427669   1.397973   0.000000
     5  C    2.427311   2.802020   2.423287   1.402187   0.000000
     6  C    1.402145   2.426392   2.799141   2.427588   1.400477
     7  H    1.071721   2.147039   3.396572   3.875367   3.397935
     8  H    2.147204   1.071753   2.149535   3.397815   3.873772
     9  H    3.398226   3.873886   3.394005   2.148535   1.071866
    10  H    2.148743   3.396962   3.870830   3.398155   2.147137
    11  C    4.335829   3.834541   2.543291   1.532194   2.539048
    12  C    3.824662   2.538886   1.523354   2.522932   3.815113
    13  C    5.130899   4.292784   2.890854   2.487816   3.754534
    14  H    6.173147   5.352044   3.950094   3.468526   4.637480
    15  C    4.914509   3.756723   2.489628   2.882995   4.285153
    16  H    5.875682   4.635170   3.471523   3.954095   5.356275
    17  O    5.120730   4.944044   3.805575   2.516850   2.848442
    18  Cl   4.520069   3.124043   2.841120   4.126098   5.263700
    19  C    6.464214   6.237866   5.035125   3.835120   4.193630
    20  C    7.433298   6.990760   5.663475   4.657549   5.299532
    21  H    7.697095   7.079189   5.699009   4.898145   5.756319
    22  C    6.635317   6.355435   5.198989   4.163874   4.580165
    23  H    7.699300   7.410344   6.239311   5.229598   5.632108
    24  H    6.372904   5.891944   4.681190   3.877219   4.575896
    25  H    6.235617   6.141017   5.152511   4.073862   4.215132
    26  C    7.230816   7.256714   6.188739   4.860369   4.821525
    27  H    7.386032   7.445870   6.399761   5.064159   4.975613
    28  H    8.220313   8.199514   7.088324   5.801625   5.831056
    29  H    6.868608   7.073249   6.153432   4.786353   4.477852
    30  C    8.227065   7.854127   6.562148   5.520040   6.039643
    31  H    9.019039   8.539400   7.213864   6.293759   6.931541
    32  H    8.225056   8.023882   6.823405   5.661503   5.943626
                    6          7          8          9         10
     6  C    0.000000
     7  H    2.149022   0.000000
     8  H    3.397523   2.472378   0.000000
     9  H    2.147466   4.283839   4.945638   0.000000
    10  H    1.071689   2.474169   4.283178   2.472156   0.000000
    11  C    3.829540   5.407549   4.691341   2.727792   4.684833
    12  C    4.322462   4.683968   2.736971   4.670091   5.394145
    13  C    4.914892   6.178738   4.922320   4.073376   5.860806
    14  H    5.876487   7.226971   5.959640   4.788379   6.776657
    15  C    5.126054   5.861794   4.078237   4.913343   6.173321
    16  H    6.174651   6.774724   4.782431   5.966466   7.228809
    17  O    4.248304   6.162589   5.902259   2.453466   4.853365
    18  Cl   5.423054   5.087816   2.653643   6.222899   6.459860
    19  C    5.577888   7.502694   7.156298   3.685351   6.120291
    20  C    6.697010   8.499201   7.807911   4.928162   7.340279
    21  H    7.123600   8.767813   7.794262   5.549132   7.866287
    22  C    5.857509   7.640900   7.208488   4.207578   6.421688
    23  H    6.904425   8.697044   8.241848   5.196235   7.426746
    24  H    5.806706   7.385522   6.642950   4.452096   6.509878
    25  H    5.375906   7.180239   7.034765   3.780173   5.825941
    26  C    6.128957   8.209422   8.249621   4.018493   6.435850
    27  H    6.260720   8.352096   8.445334   4.143890   6.531494
    28  H    7.137386   9.202804   9.169921   5.043991   7.439480
    29  H    5.672190   7.785149   8.102221   3.568644   5.842391
    30  C    7.420684   9.277036   8.687441   5.566588   7.987491
    31  H    8.300143  10.072178   9.304602   6.533320   8.915220
    32  H    7.287598   9.241925   8.924093   5.325891   7.730060
                   11         12         13         14         15
    11  C    0.000000
    12  C    2.920408   0.000000
    13  C    1.358179   2.506203   0.000000
    14  H    2.107202   3.435275   1.059907   0.000000
    15  C    2.516701   1.351514   1.531224   2.236595   0.000000
    16  H    3.464736   2.101471   2.259772   2.559410   1.071200
    17  O    1.445949   4.362771   2.498704   2.762057   3.891562
    18  Cl   4.675904   1.755529   4.138213   4.937347   2.700797
    19  C    2.555330   5.355255   3.112126   2.894560   4.616956
    20  C    3.159649   5.618554   3.124866   2.439311   4.593668
    21  H    3.372045   5.384129   2.911718   1.990714   4.211397
    22  C    3.061762   5.434633   3.433149   3.258141   4.730128
    23  H    4.064108   6.373133   4.274377   3.890888   5.560899
    24  H    2.773065   4.687753   2.805737   2.655307   3.921647
    25  H    3.321202   5.634421   3.976815   4.043453   5.166487
    26  C    3.815519   6.718437   4.573437   4.371560   6.080046
    27  H    4.055164   6.953160   4.827302   4.627196   6.328325
    28  H    4.660345   7.501852   5.237500   4.864269   6.750489
    29  H    4.029400   6.885350   4.997944   4.987554   6.429584
    30  C    4.093815   6.553830   4.117387   3.432939   5.541415
    31  H    4.841403   7.020081   4.615325   3.792952   5.905330
[...]
 0382,0.00001343,-0.00000412,0.00005667,-0.00005735,0.00000855,0.000041
 59,-0.00002061,0.00001149,-0.00093885,0.00089129,-0.00052191,-0.000152
 82,-0.00000213,-0.00006046,0.00036253,-0.00033547,0.00015356,-0.000059
 16,-0.00000633,-0.00001255,0.00001209,0.00026374,-0.00001573,-0.000018
 99,-0.00000808,-0.00000705,0.00031380,-0.00069261,0.00069498,0.0000330
 2,-0.00009409,0.00002244,-0.03427554,0.00863349,0.00595819,-0.00030920
 ,-0.00026656,-0.00037258,-0.00013260,0.00004637,0.00008831,-0.00112088
 ,0.00103982,-0.00061382,-0.00001834,0.00000764,-0.00003760,-0.00029094
 ,0.00004229,0.00019096,-0.00001032,0.00004812,0.00003217,-0.16530797,-
 0.03007508,0.07598058,0.20860291,0.00004917,-0.00004170,0.00002468,-0.
 00005690,0.00001682,-0.00002384,0.00004503,0.00003270,0.00001558,0.000
 02647,0.00016399,0.00001029,-0.00007556,0.00003133,-0.00001736,0.00003
 400,0.00010342,0.00000641,-0.00001217,-0.00001560,-0.00000438,0.000008
 96,-0.00002786,0.00000599,-0.00001395,-0.00004291,-0.00000456,-0.00002
 464,-0.00000276,-0.00001211,0.00046214,-0.00074526,0.00012580,0.000031
 42,-0.00006021,0.00002087,-0.00031953,0.00013691,-0.00012607,0.0000478
 0,0.00008006,-0.00001003,-0.00002107,-0.00011396,0.00000741,0.00002697
 ,0.00000348,0.00001029,-0.00065717,-0.00006328,0.00006353,-0.00003422,
 0.00007944,-0.00002270,0.01747013,0.00321669,-0.00458853,0.00000010,-0
 .00011453,-0.00005451,-0.00000436,0.00004800,-0.00009604,0.00169433,-0
 .00138593,0.00039517,-0.00013328,-0.00000515,0.00010431,0.00023770,0.0
 0005578,-0.00023549,-0.00000510,0.00006183,0.00008879,-0.03110580,-0.0
 4031231,0.01847188,0.03051828,0.04415780,0.00001088,-0.00000753,0.0000
 0497,-0.00000548,0.00000929,-0.00001258,-0.00000328,0.00000791,0.00001
 218,0.00001271,0.00006417,-0.00002449,-0.00001500,0.00001932,-0.000036
 09,0.00001295,0.00002391,-0.00000840,-0.00000527,-0.00000485,0.0000025
 2,0.00000169,-0.00000849,0.00000566,-0.00001734,-0.00001758,0.00003475
 ,-0.00000920,-0.00000052,0.00000616,0.00005882,-0.00034911,0.00018127,
 0.00003640,-0.00001521,0.00000699,-0.00009850,0.00012409,-0.00011993,0
 .00001686,0.00000081,0.00004743,-0.00001101,-0.00006253,0.00000383,0.0
 0000895,0.00000471,0.00000979,0.00038429,-0.00016433,-0.00042175,-0.00
 001392,0.00003327,-0.00000898,-0.00278265,-0.00182335,0.00683226,-0.00
 050633,0.00011423,-0.00025688,-0.00010407,0.00006236,-0.00001321,-0.00
 117290,0.00074436,-0.00019978,0.00009188,0.00007382,-0.00003824,-0.000
 08266,-0.00001185,0.00017428,0.00006605,-0.00001204,-0.00006333,0.0780
 8788,0.01842356,-0.07888025,-0.09259072,-0.02312723,0.08889740,0.00001
 545,-0.00001118,0.00000746,-0.00002483,0.00001976,-0.00001029,0.000060
 86,0.00003144,0.00002143,-0.00012322,0.00025634,-0.00006781,-0.0000461
 4,-0.00000265,-0.00001401,0.00000984,0.00002932,0.00000446,-0.00000350
 ,-0.00000656,-0.00000189,0.00000704,-0.00000876,0.00000282,0.00000961,
 -0.00001485,-0.00000514,-0.00000276,-0.00000168,-0.00000356,0.00079407
 ,0.00039669,0.00022464,0.00001182,-0.00004977,0.00001144,-0.00008324,0
 .00000879,-0.00001789,0.00005296,0.00004413,0.00000281,-0.00001818,-0.
 00002518,-0.00000243,0.00002018,0.00000672,0.00000609,-0.00242289,0.00
 168055,-0.00093776,-0.00002053,0.00004336,-0.00001277,0.00215209,0.021
 21565,-0.00033228,-0.00040136,0.00003059,-0.00033243,-0.00018972,0.000
 18424,-0.00027700,-0.00052473,-0.00063777,0.00007716,-0.00081153,0.000
 34127,0.00029185,-0.00001076,0.00005707,-0.00001174,-0.00000470,0.0001
 5535,-0.00001211,-0.04190235,-0.04218024,-0.00664189,-0.00807656,-0.01
 973238,0.00078527,0.04958642,0.00001940,-0.00001626,0.00000945,-0.0000
 0799,0.00001948,-0.00000397,-0.00003260,0.00000130,-0.00001489,0.00009
 848,0.00003320,0.00004422,-0.00003691,0.00002830,-0.00001619,0.0000353
 5,0.00004830,0.00001099,-0.00001007,-0.00001415,-0.00000328,0.00000480
 ,-0.00002175,0.00000333,-0.00001347,-0.00003741,-0.00000538,-0.0000221
 0,0.00000054,-0.00000988,0.00011432,-0.00111762,0.00009851,0.00008772,
 -0.00000978,0.00003930,-0.00028804,0.00024963,-0.00012143,0.00004801,-
 0.00002601,0.00002409,0.00000238,-0.00016977,0.00001682,0.00002089,0.0
 0000112,0.00000686,0.00130484,0.00002343,0.00058597,-0.00002737,0.0000
 7197,-0.00001824,0.00928002,-0.03061660,0.00293172,0.00020288,-0.00017
 826,0.00066428,0.00022869,0.00002761,0.00007963,-0.00062029,0.00020685
 ,0.00004988,0.00046037,0.00017657,-0.00014219,0.00004291,-0.00000762,0
 .00010411,0.00006789,-0.00007956,-0.00013025,-0.04013669,-0.20444347,-
 0.02642449,-0.00958088,-0.00943379,0.00172022,0.04302270,0.25300549,0.
 00000807,-0.00000437,0.00000386,-0.00000618,0.00001501,-0.00001026,0.0
 0002642,0.00001751,0.00001294,-0.00006306,0.00016278,-0.00006780,-0.00
 002314,0.00000161,-0.00002183,0.00001444,0.00001545,-0.00000375,-0.000
 00453,-0.00000510,0.00000168,0.00000306,-0.00000573,0.00000478,-0.0000
 1163,0.00000034,0.00002139,-0.00000786,0.00000160,0.00000350,0.0004111
 9,0.00016488,0.00039872,0.00002631,-0.00002723,0.00000578,-0.00003618,
 0.00004149,-0.00008919,0.00001320,0.00001431,0.00004032,-0.00000608,-0
 .00003841,-0.00000683,0.00000935,0.00000465,0.00001108,-0.00088886,0.0
 0091114,-0.00083950,-0.00001453,0.00003275,-0.00000841,-0.00058960,0.0
 0787950,0.00444498,-0.00042109,0.00020279,-0.00073227,-0.00029091,0.00
 016377,-0.00021587,-0.00012213,0.00007385,-0.00044227,0.00032125,-0.00
 008666,0.00008083,0.00001398,-0.00000587,0.00001356,0.00013834,-0.0000
 7049,0.00000437,-0.00679065,-0.02679440,-0.03628376,0.00532662,0.00980
 834,0.00368513,0.01036723,0.02914942,0.03809860,0.00000559,-0.00000767
 ,0.00000290,-0.00002940,-0.00001875,-0.00000650,0.00002545,0.00000401,
 0.00000303,0.00003365,-0.00012184,0.00002763,0.00001273,0.00001736,0.0
 0000758,-0.00003405,0.00001089,-0.00001292,0.00000561,0.00000682,0.000
 00054,0.00000044,0.00000116,-0.00000165,0.00003364,-0.00004522,0.00000
 853,0.00001930,-0.00001289,0.00000773,-0.00051971,0.00030710,-0.000250
 11,-0.00006935,-0.00001444,-0.00002419,0.00006960,-0.00010373,0.000109
 34,0.00001485,0.00001748,-0.00003656,-0.00000248,0.00010798,-0.0000155
 8,0.,-0.00000071,-0.00000417,0.00026628,-0.00099965,0.00032742,0.00000
 839,-0.00002965,0.00000652,-0.00978521,0.00634622,-0.02519875,-0.00153
 782,0.00139347,-0.00066057,0.00006081,-0.00004778,-0.00007804,-0.00039
 413,-0.00038875,0.00016807,-0.00079866,-0.00009573,-0.00010325,0.00000
 837,0.00007367,-0.00011881,-0.00060860,0.00052553,0.00023385,-0.039667
 21,-0.00403621,-0.03120296,0.00132670,0.00156229,0.01793750,0.00196793
 ,-0.00419644,-0.00735961,0.04949971,0.00004179,-0.00003455,0.00001992,
 -0.00004592,0.00001590,-0.00002450,0.00003788,0.00002831,0.00002057,0.
 00001818,0.00014792,-0.00001556,-0.00005364,0.00002881,-0.00004271,0.0
 0003076,0.00008628,0.00000120,-0.00001160,-0.00001401,-0.00000198,0.00
 000744,-0.00002429,0.00000672,-0.00001493,-0.00004283,0.00000899,-0.00
 002328,-0.00000215,-0.00000579,0.00034186,-0.00060628,0.00024877,0.000
 03194,-0.00005683,0.00001428,-0.00025239,0.00012027,-0.00014735,0.0000
 2487,0.00006716,0.00002465,-0.00001897,-0.00009638,0.00000102,0.000022
 74,0.00000342,0.00001177,-0.00029979,0.00008183,-0.00052208,-0.0000311
 9,0.00007158,-0.00001904,0.00866795,0.00154151,0.01697922,0.00140962,-
 0.00109980,0.00058342,-0.00005605,0.00010039,0.00006632,-0.00004467,-0
 .00023130,-0.00017759,-0.00008555,0.00015201,0.00003267,-0.00003865,0.
 00003221,0.00007824,0.00033120,-0.00001365,-0.00009183,-0.00461384,-0.
 03701858,-0.02542818,-0.00029463,0.00427574,0.00400950,-0.00492340,-0.
 00760136,-0.02167025,-0.00014345,0.04000706,-0.00001606,0.00000770,-0.
 00000750,-0.00000642,-0.00003766,-0.00000853,0.00001339,-0.00000649,0.
 00002036,0.00002673,-0.00023836,0.00000912,0.00006807,-0.00001709,0.00
 000251,-0.00004825,-0.00003886,-0.00002989,0.00001113,0.00001734,0.000
 00759,-0.00000748,0.00001848,-0.00000028,0.00002116,-0.00000974,0.0000
 5031,0.00002741,-0.00000996,0.00002360,-0.00073336,0.00092618,-0.00027
 453,-0.00012083,0.00001373,-0.00006149,0.00035035,-0.00032641,0.000125
 37,-0.00006649,0.00000773,-0.00001060,0.00001324,0.00022045,-0.0000117
 1,-0.00002462,-0.00000728,-0.00000341,0.00053999,-0.00088550,-0.000121
 72,0.00003415,-0.00009165,0.00002251,-0.01501275,0.00817627,-0.0162965
 0,-0.00035242,0.00027558,-0.00022947,-0.00006880,-0.00004944,-0.000005
 05,0.00041997,-0.00026197,-0.00024533,-0.00015996,-0.00008002,0.000153
 56,0.00005522,0.00004112,-0.00007837,0.00002144,0.00001308,0.00029030,
 -0.03404882,-0.02411919,-0.20923191,0.00589587,-0.00100963,-0.01943093
 ,-0.00317789,-0.00848387,-0.00808652,0.04632678,0.02593603,0.25334292,
 -0.00006502,0.00008026,-0.00003445,0.00012822,0.00003474,0.00004481,-0
 .00018845,-0.00002703,-0.00006673,-0.00006327,-0.00014211,-0.00004013,
 0.00008685,0.00002623,0.00001328,0.00000236,-0.00011092,-0.00000122,-0
 .00000725,-0.00000710,0.00000191,-0.00000671,0.00000644,-0.00000014,-0
 .00001775,0.00005760,0.00002918,-0.00001102,0.00000971,0.00000513,-0.0
 0018172,0.00068336,-0.00041769,0.00019205,0.00005673,0.00005647,-0.000
 20105,0.00071843,0.00069871,-0.00023105,0.00017236,-0.00000164,0.00002
 087,-0.00012953,0.00002001,-0.00001220,-0.00001322,-0.00002765,0.00048
 467,-0.00093631,-0.00032950,0.00000412,0.00001958,-0.00000106,0.007014
 23,0.00121391,0.00589447,-0.21202567,-0.11593952,0.21752417,-0.0200242
 9,-0.02065463,0.02104273,0.00022251,0.00015865,-0.00067743,-0.00000286
 ,-0.00003725,-0.00010756,-0.00007497,-0.00003311,-0.00008524,0.0001097
 1,0.00002389,-0.00005292,-0.00041078,0.00055973,-0.00094853,-0.0001767
 1,-0.00006000,-0.00001114,-0.00006720,-0.00004003,-0.00003593,0.000018
 92,-0.00001448,-0.00001586,0.42361119,0.00001205,-0.00002406,0.0000084
 8,-0.00005138,-0.00004724,-0.00003717,0.00013516,0.00002052,0.00007566
 ,-0.00003409,0.00006642,-0.00003424,-0.00000211,0.00000025,0.00000205,
 -0.00004524,0.00000999,-0.00002460,0.00001640,0.00002506,0.00000883,-0
 .00000622,0.00002723,0.00000170,0.00001221,-0.00002599,0.00003435,0.00
 003381,-0.00000648,0.00002044,-0.00006515,-0.00047891,-0.00027020,-0.0
 0019636,0.00002928,-0.00008906,0.00091515,-0.00086962,-0.00056609,0.00
 005358,-0.00025574,-0.00001058,0.00001513,0.00024771,-0.00006876,-0.00
 005072,0.00000190,0.00001040,0.00006322,0.00033651,-0.00186346,0.00003
 551,-0.00011506,0.00003959,0.00100924,0.00492058,0.00339574,-0.1155841
 7,-0.14244148,0.16161635,-0.02105160,-0.00941444,0.01648418,0.00044955
 ,0.00038764,-0.00072636,-0.00000081,-0.00002681,-0.00006407,-0.0000591
 7,-0.00006325,-0.00003934,0.00004910,-0.00001983,-0.00000424,-0.000223
 70,0.00028962,0.00046792,0.00009329,-0.00008021,-0.00008407,0.00003503
 ,-0.00004751,-0.00006777,-0.00003769,-0.00002144,-0.00000537,0.2262118
 8,0.30813639,-0.00003335,0.00003178,-0.00001571,0.00000663,-0.00005556
 ,0.00002263,0.00006404,-0.00000789,-0.00000447,-0.00007732,-0.00025146
 ,-0.00001225,0.00010629,-0.00002910,0.00005589,-0.00008704,-0.00008422
 ,-0.00001710,0.00002021,0.00002809,0.00000117,-0.00001104,0.00004284,-
 0.00001742,0.00003073,0.00002888,0.00001562,0.00004589,-0.00000644,0.0
 0001374,-0.00091245,0.00098609,-0.00072295,-0.00024062,0.00001762,-0.0
 0008288,0.00108763,-0.00110866,0.00010679,0.00008431,-0.00029830,-0.00
 021308,-0.00000026,0.00046715,-0.00011141,-0.00005833,-0.00001250,-0.0
 0003821,0.00111321,-0.00134889,-0.00252415,0.00006659,-0.00017737,0.00
 005224,0.00996381,0.00770271,-0.04751067,0.22281940,0.16575142,-0.3961
 2191,0.01013957,0.00770254,-0.00075240,-0.00012843,-0.00087675,-0.0033
 9813,-0.00017883,-0.00026239,0.00018314,-0.00040596,0.00012960,0.00006
 358,0.00047354,0.00013950,-0.00005134,-0.00028171,0.00019130,-0.002441
 69,0.00006341,0.00000228,-0.00016954,0.00004809,-0.00031967,0.00003716
 ,-0.00010436,0.00011990,0.00017717,-0.18428638,-0.12737654,0.69638163,
 0.00001431,-0.00001657,0.00000802,-0.00003144,-0.00000301,-0.00001372,
 0.00004803,0.00001259,0.00002495,-0.00001534,0.00007199,-0.00001713,-0
 .00002228,0.00000095,-0.00000617,-0.00000207,0.00002659,-0.00000086,0.
 00000149,0.00000124,0.00000006,0.00000308,-0.00000249,0.00000198,0.000
 00292,-0.00001883,0.00000042,0.00000361,-0.00000272,0.00000012,0.00017
 628,-0.00017649,0.00016881,-0.00003537,-0.00002239,-0.00001357,-0.0000
 2002,0.00001706,-0.00017102,0.00001014,-0.00000723,0.00006422,-0.00000
 487,0.00002508,0.00000856,0.00001204,0.00000569,0.00001641,-0.00032626
 ,0.00018442,-0.00062431,-0.00000534,0.00000578,-0.00000486,0.00243876,
 -0.00564676,0.00038992,0.00482382,0.00002420,0.01686924,-0.00122180,0.
 00210065,0.00053537,-0.00011758,0.00019874,-0.00006544,0.00006007,0.00
 001873,-0.00005822,0.00003442,-0.00002895,-0.00002160,0.00002270,-0.00
 000426,-0.00004242,0.00050376,0.00018835,0.00116741,-0.00008339,-0.000
 01742,-0.00000328,-0.00004105,0.00012951,-0.00004402,0.00014057,-0.000
 11779,-0.00001779,-0.04713098,-0.00530898,-0.04338363,0.04442480,-0.00
 000536,0.00001383,-0.00000376,0.00002725,0.00002293,0.00001434,-0.0000
 4486,-0.00000672,-0.00002875,0.00001035,0.00001842,0.00000741,0.000001
 85,0.00000793,-0.00000303,0.00002016,-0.00000502,0.00000988,-0.0000080
 5,-0.00001126,-0.00000305,0.00000238,-0.00001009,-0.00000077,-0.000012
 32,0.00001394,-0.00000352,-0.00001552,0.00000417,-0.00000671,0.0000896
 6,-0.00020722,0.00002993,0.00008030,-0.00001128,0.00004139,-0.00011453
 ,0.00013039,0.00010658,0.00005195,-0.00006052,-0.00002335,0.00000410,-
 0.00008339,-0.00000511,0.00001408,0.,-0.00000381,0.00037402,0.00056825
 ,0.00036799,-0.00001647,0.00004969,-0.00001030,-0.00536226,0.00464701,
 0.00008724,-0.00005848,0.00590561,0.01124988,0.00208080,-0.00210034,0.
 00061245,0.00005675,-0.00007706,0.00109619,-0.00000318,0.00008355,-0.0
 0001100,0.00012203,-0.00002500,-0.00002744,-0.00012468,-0.00003803,0.0
 0002682,-0.00021070,-0.00014245,-0.00096166,-0.00000002,-0.00000938,0.
 00005441,0.00000135,0.00000341,0.00002050,-0.00014452,0.00009960,-0.00
 003648,-0.00542218,-0.04732789,-0.03899847,0.01862465,0.03836515,0.000
 01188,-0.00000407,0.00000447,0.00000959,0.00004017,-0.00000651,-0.0000
 4743,0.00001095,-0.00001229,0.00002714,0.00015715,-0.00001448,-0.00004
 089,0.00002815,-0.00001944,0.00004511,0.00003803,0.00000969,-0.0000137
 3,-0.00001900,-0.00000123,0.00000728,-0.00002598,0.00001010,-0.0000187
 0,-0.00001530,-0.00000523,-0.00002681,0.00000359,-0.00000788,0.0005473
 0,-0.00088118,0.00020679,0.00015724,-0.00002484,0.00005613,-0.00033891
 ,0.00044648,-0.00006418,0.00009076,-0.00014953,-0.00001408,0.00000759,
 -0.00023056,0.00002900,0.00003163,0.00000394,0.00002344,-0.00006714,0.
 00136909,0.00033347,-0.00004248,0.00011146,-0.00002958,0.00065256,-0.0
 0064105,-0.00301207,0.00325698,0.00139118,-0.04096145,0.00066829,0.000
 74343,0.00017695,-0.00012826,0.00002974,0.00028298,0.00004363,0.000062
 64,-0.00008694,0.00008727,-0.00005122,-0.00008021,0.00001513,-0.000033
 29,-0.00008847,0.00036065,0.00005334,0.00070884,-0.00015063,-0.0000195
 6,-0.00001831,-0.00004953,0.00015126,-0.00007557,0.00002100,-0.0000550
 3,-0.00007178,-0.04030004,-0.03685950,-0.20592060,0.04169404,0.0400131
 2,0.25467190,0.00003397,-0.00004399,0.00001896,-0.00009722,-0.00004394
 ,-0.00002107,0.00015862,0.00001764,0.00003299,-0.00001697,-0.00006066,
 0.00003861,-0.00001653,-0.00002553,0.00003929,-0.00004143,0.00005166,-
 0.00000243,0.00001221,0.00001380,-0.00000287,0.00000243,0.00000705,-0.
 00000681,0.00003820,-0.00003800,-0.00002250,0.00002652,-0.00001296,-0.
 00000122,-0.00029815,0.00076292,0.00025267,-0.00023114,-0.00005346,-0.
 00007498,0.00015688,-0.00045075,-0.00002691,-0.00008852,0.00019574,0.0
 0007462,0.00000040,0.00026587,-0.00004547,-0.00000857,-0.00000442,0.00
 000142,-0.00013068,-0.00059999,0.00045132,0.00002145,-0.00007744,0.000
 01780,-0.00104172,0.00295145,0.00204215,-0.01854865,-0.02059012,0.0092
 5523,0.00256547,-0.00529739,0.00114045,0.00002857,-0.00014258,-0.00053
 036,-0.00004688,-0.00006767,0.00011285,-0.00009387,0.00005498,0.000094
 13,0.00004157,0.00003709,0.00007820,-0.00067344,-0.00012801,-0.0009631
 0,0.00020018,0.00005910,-0.00007932,0.00008651,-0.00015689,0.00003577,
 -0.00007262,0.00011756,0.00005265,-0.15099546,-0.08642184,-0.01594376,
 -0.00366314,-0.01001858,-0.00651069,0.17269241,0.00000855,-0.00000297,
 0.00000356,-0.00000639,0.00000614,0.00001669,-0.00000023,-0.00000508,-
 0.00002928,0.00001758,-0.00007543,0.00011415,0.00000821,-0.00001596,0.
 00003465,0.00001190,0.00001409,0.00001668,-0.00000532,-0.00000967,-0.0
 0000693,0.00000370,-0.00001090,-0.00000589,0.00001362,0.00002232,-0.00
 002437,-0.00001035,0.00000048,-0.00001308,-0.00017367,0.00038103,-0.00
 053422,-0.00002063,-0.00004745,0.00002834,0.00002868,-0.00024512,0.000
 10320,0.00001119,0.00012017,-0.00005010,-0.00001379,0.00003970,-0.0000
 0981,0.00001734,-0.00000333,-0.00000820,-0.00036257,-0.00130547,-0.000
 03351,-0.00000999,0.00003157,-0.00001094,0.00269502,-0.00102358,0.0019
 1922,-0.02012643,-0.00860899,0.00675721,-0.00520178,0.00496732,0.00044
 417,0.00005067,-0.00014381,-0.00068453,-0.00002731,-0.00005369,0.00004
 408,-0.00009033,0.00006986,0.00002650,0.00007796,0.00006193,0.00001985
 ,-0.00013592,-0.00024043,-0.00002249,0.00016524,-0.00000916,0.00019795
 ,0.00003451,-0.00007462,0.00009522,0.00007111,0.00000380,0.00006157,-0
 .08646753,-0.11323348,-0.01212751,-0.01026321,0.00018380,-0.00564347,0
 .11969922,0.11920656,0.00003526,-0.00004046,0.00001699,-0.00003026,0.0
 0001724,-0.00001790,-0.00000975,0.00000908,-0.00000010,0.00011473,0.00
 014598,0.00005461,-0.00007339,0.00002383,-0.00000925,0.00005555,0.0000
 7814,0.00001194,-0.00000969,-0.00001382,-0.00000131,0.00000563,-0.0000
 2517,0.00000810,-0.00000123,-0.00001260,-0.00001011,-0.00002625,0.0000
 0286,-0.00000996,0.00079241,-0.00147586,-0.00030702,0.00009357,-0.0000
 0044,0.00003491,-0.00042959,0.00016452,-0.00019339,0.00008298,0.000104
 44,-0.00000325,-0.00000360,-0.00025395,0.00004043,0.00002895,0.0000050
 0,0.00001369,-0.00067318,0.00051607,0.00049756,-0.00003447,0.00008461,
 -0.00002365,0.00137886,0.00147277,-0.00042741,0.02183166,0.01701940,-0
 .00084120,0.00116653,0.00053595,-0.00178106,-0.00016839,-0.00012567,0.
 00001420,-0.00000304,0.00001440,0.00004908,0.00000101,0.00004011,0.000
 04417,-0.00000734,0.00000585,-0.00000483,-0.00018768,-0.00026285,-0.00
 005250,-0.00011721,0.00019029,-0.00020189,0.00005719,0.00000453,0.0000
 1555,-0.00001022,0.00003860,-0.00002020,-0.01788985,-0.01397362,-0.036
 98699,-0.01646215,-0.01361198,-0.00602356,0.01049304,0.00932227,0.0461
 1527\\0.00000729,-0.00000737,0.00000049,-0.00001163,0.00000154,-0.0000
 0665,0.00001825,0.00000123,0.00000880,0.00000906,0.00000876,0.00000349
 ,-0.00001290,-0.00000837,-0.00000349,-0.00000131,0.00001369,-0.0000038
 4,-0.00000243,0.00000226,-0.00000370,0.00000270,-0.00000043,-0.0000020
 0,0.00000210,0.00000532,0.00000057,-0.00000072,0.00000132,-0.00000135,
 -0.00000369,-0.00001838,-0.00001316,-0.00001690,-0.00001055,-0.0000132
 6,0.00000991,-0.00000300,0.00000884,-0.00000182,0.00000176,-0.00000044
 ,-0.00000427,0.00000985,0.00000162,0.00000110,-0.00000617,-0.00000269,
 0.00000716,0.00003030,0.00000154,-0.00000394,0.00000198,-0.00000434,-0
 .00000783,-0.00001819,-0.00001177,-0.00001416,-0.00001011,0.00001225,0
 .00000939,0.00000386,-0.00000103,-0.00000006,0.00000406,0.00000620,0.0
 0000106,-0.00000262,0.00000259,-0.00000123,0.00000155,0.00000210,-0.00
 000189,0.00000071,-0.00000002,-0.00000344,-0.00000758,0.00000768,0.000
 00733,0.00000087,0.00000005,0.00000442,0.00000343,0.00000333,0.0000028
 0,0.00000243,0.00000601,0.00000378,0.00000186,0.00000311,0.00000155,-0
 .00000177,0.00000067,0.00000036,-0.00000226,-0.00000161\\\@


 WE TEND TO MEET ANY NEW SITUATION BY REORGANIZING. IT CAN BE A
 WONDERFUL METHOD FOR CREATING THE ILLUSION OF PROGRESS WHILE PRODUCING
 CONFUSION, INEFFICIENCY, AND DEMORALIZATION.
     -- PETRONIUS ARBITER, 210 B.C.
 Job cpu time:       0 days  0 hours  0 minutes 42.7 seconds.
 File lengths (MBytes):  RWF=    162 Int=      0 D2E=      0 Chk=     12 Scr=      1
 Normal termination of Gaussian 09 at Mon Aug 10 22:47:08 2020.
