 Entering Gaussian System, Link 0=g09
 Input=TS_claisen_PM6_toluene.com
 Output=TS_claisen_PM6_toluene.log
 Initial command:
 /apps/applications/gaussian/G09.D01/2/default/g09/l1.exe "/local/695437.1.40core-192G.q/Gau-180919.inp" -scrdir="/local/695437.1.40core-192G.q/"
 Entering Link 1 = /apps/applications/gaussian/G09.D01/2/default/g09/l1.exe PID=    180920.
  
 Copyright (c) 1988,1990,1992,1993,1995,1998,2003,2009,2013,
            Gaussian, Inc.  All Rights Reserved.
  
 This is part of the Gaussian(R) 09 program.  It is based on
 the Gaussian(R) 03 system (copyright 2003, Gaussian, Inc.),
 the Gaussian(R) 98 system (copyright 1998, Gaussian, Inc.),
 the Gaussian(R) 94 system (copyright 1995, Gaussian, Inc.),
 the Gaussian 92(TM) system (copyright 1992, Gaussian, Inc.),
 the Gaussian 90(TM) system (copyright 1990, Gaussian, Inc.),
 the Gaussian 88(TM) system (copyright 1988, Gaussian, Inc.),
 the Gaussian 86(TM) system (copyright 1986, Carnegie Mellon
 University), and the Gaussian 82(TM) system (copyright 1983,
 Carnegie Mellon University). Gaussian is a federally registered
 trademark of Gaussian, Inc.
  
 This software contains proprietary and confidential information,
 including trade secrets, belonging to Gaussian, Inc.
  
 This software is provided under written license and may be
 used, copied, transmitted, or stored only in accord with that
 written license.
  
 The following legend is applicable only to US Government
 contracts under FAR:
  
                    RESTRICTED RIGHTS LEGEND
  
 Use, reproduction and disclosure by the US Government is
 subject to restrictions as set forth in subparagraphs (a)
 and (c) of the Commercial Computer Software - Restricted
 Rights clause in FAR 52.227-19.
  
 Gaussian, Inc.
 340 Quinnipiac St., Bldg. 40, Wallingford CT 06492
  
  
 ---------------------------------------------------------------
 Warning -- This program may not be used in any manner that
 competes with the business of Gaussian, Inc. or will provide
 assistance to any competitor of Gaussian, Inc.  The licensee
 of this program is prohibited from giving any competitor of
 Gaussian, Inc. access to this program.  By using this program,
 the user acknowledges that Gaussian, Inc. is engaged in the
 business of creating and licensing software in the field of
 computational chemistry and represents and warrants to the
 licensee that it is not a competitor of Gaussian, Inc. and that
 it will not use this program in any manner prohibited above.
 ---------------------------------------------------------------
  

 Cite this work as:
 Gaussian 09, Revision D.01,
 M. J. Frisch, G. W. Trucks, H. B. Schlegel, G. E. Scuseria, 
 M. A. Robb, J. R. Cheeseman, G. Scalmani, V. Barone, B. Mennucci, 
 G. A. Petersson, H. Nakatsuji, M. Caricato, X. Li, H. P. Hratchian, 
 A. F. Izmaylov, J. Bloino, G. Zheng, J. L. Sonnenberg, M. Hada, 
 M. Ehara, K. Toyota, R. Fukuda, J. Hasegawa, M. Ishida, T. Nakajima, 
 Y. Honda, O. Kitao, H. Nakai, T. Vreven, J. A. Montgomery, Jr., 
 J. E. Peralta, F. Ogliaro, M. Bearpark, J. J. Heyd, E. Brothers, 
 K. N. Kudin, V. N. Staroverov, T. Keith, R. Kobayashi, J. Normand, 
 K. Raghavachari, A. Rendell, J. C. Burant, S. S. Iyengar, J. Tomasi, 
 M. Cossi, N. Rega, J. M. Millam, M. Klene, J. E. Knox, J. B. Cross, 
 V. Bakken, C. Adamo, J. Jaramillo, R. Gomperts, R. E. Stratmann, 
 O. Yazyev, A. J. Austin, R. Cammi, C. Pomelli, J. W. Ochterski, 
 R. L. Martin, K. Morokuma, V. G. Zakrzewski, G. A. Voth, 
 P. Salvador, J. J. Dannenberg, S. Dapprich, A. D. Daniels, 
 O. Farkas, J. B. Foresman, J. V. Ortiz, J. Cioslowski, 
 and D. J. Fox, Gaussian, Inc., Wallingford CT, 2013.
 
 ******************************************
 Gaussian 09:  ES64L-G09RevD.01 24-Apr-2013
                11-Aug-2020 
 ******************************************
 %nprocshared=4
 Will use up to    4 processors via shared memory.
 %chk=TS_claisen_PM6_toluene.chk
 ----------------------------------------------------------------------
 # opt=qst3 pm6 scrf=(cpcm,solvent=toluene) geom=connectivity empirical
 dispersion=gd3
 ----------------------------------------------------------------------
 1/5=1,14=-1,18=20,26=1,27=203,38=1,57=2/1,3;
 2/9=110,12=2,17=6,18=5,40=1/2;
 3/5=2,16=1,25=1,41=3900000,70=2101,71=1,72=13,124=31/1,2,3;
 4/35=1/1;
 5/5=2,35=1,38=5,53=13/2;
 6/7=2,8=2,9=2,10=2,28=1/1;
 7//1,2,3,16;
 1/5=1,14=-1,18=20,26=1,27=203/3(2);
 2/9=110/2;
 99//99;
 2/9=110/2;
 3/5=2,16=1,25=1,41=3900000,70=2105,71=1,72=13,124=31,135=20/1,2,3;
 4/5=5,16=3,35=1/1;
 5/5=2,35=1,38=5,53=13/2;
 7//1,2,3,16;
 1/5=1,14=-1,18=20,26=1,27=203/3(-5);
 2/9=110/2;
 6/7=2,8=2,9=2,10=2,19=2,28=1/1;
 99/9=1/99;
 -------------------
 Title Card Required
 -------------------
 Symbolic Z-matrix:
 Charge =  0 Multiplicity = 1
 C                     2.81622   2.50258  -0.12777 
 C                     3.00346   1.14097  -0.07657 
 C                     1.88345   0.26098   0.01979 
 C                     0.57931   0.81892   0.06205 
 C                     0.41283   2.2338    0.00658 
 C                     1.50796   3.0586   -0.0863 
 H                     3.67074   3.17663  -0.20112 
 H                     4.01116   0.72626  -0.10951 
 H                    -0.60324   2.63464   0.04019 
 H                     1.39193   4.14061  -0.12908 
 C                    -0.5556   -0.07572   0.16023 
 C                     2.00311  -1.16557   0.07591 
 C                    -0.39484  -1.44532   0.21093 
 H                    -1.24508  -2.1202    0.2788 
 C                     0.91156  -1.99348   0.16805 
 H                     1.02666  -3.07861   0.2088 
 O                    -1.73395   0.60818   0.1887 
 Cl                    3.57805  -1.87288   0.0232 
 C                    -3.05459  -0.06567   0.28836 
 C                    -3.28931  -0.97981  -0.89162 
 H                    -3.9766   -1.80337  -0.68775 
 C                    -3.13663  -0.7864    1.62753 
 H                    -4.1755   -0.99247   1.91304 
 H                    -2.6042   -1.7467    1.62522 
 H                    -2.69455  -0.18129   2.43098 
 C                    -3.96481   1.16138   0.22053 
 H                    -3.72542   1.78173  -0.65436 
 H                    -5.01893   0.87143   0.14399 
 H                    -3.85248   1.80005   1.1052 
 C                    -2.74827  -0.79803  -2.09289 
 H                    -2.93844  -1.45005  -2.93482 
 H                    -2.06447   0.01152  -2.32239 
 
 -------------------
 Title Card Required
 -------------------
 Symbolic Z-matrix:
 Charge =  0 Multiplicity = 1
 C                     4.19038  -1.08103   0.1535 
 C                     3.50465   0.13347   0.07402 
 C                     2.10626   0.14624  -0.04455 
 C                     1.40273  -1.07861  -0.08164 
 C                     2.10544  -2.29161  -0.00194 
 C                     3.49493  -2.29474   0.1157 
 H                     5.27843  -1.0815    0.24566 
 H                     4.07426   1.06324   0.10687 
 H                     1.54798  -3.2329   -0.03389 
 H                     4.03698  -3.23834   0.17747 
 C                    -0.07815  -1.11976  -0.20307 
 C                     1.32972   1.38561  -0.13042 
 C                    -0.85438   0.19448  -0.19579 
 H                    -1.46305   0.20074  -1.14921 
 C                    -0.00902   1.42725  -0.19626 
 H                    -0.56402   2.36828  -0.25078 
 O                    -0.67865  -2.17399  -0.31408 
 Cl                    2.217     2.8699   -0.1477 
 C                    -4.15773   0.02712   0.06444 
 C                    -3.17004   0.75944   0.60665 
 H                    -3.2934    1.82622   0.78182 
 C                    -5.46866   0.65192  -0.30464 
 H                    -6.31303   0.09824   0.12923 
 H                    -5.55964   1.69216   0.03285 
 H                    -5.61286   0.65395  -1.39457 
 C                    -4.05391  -1.43953  -0.20647 
 H                    -3.01361  -1.77559  -0.35516 
 H                    -4.45486  -2.02223   0.63541 
 H                    -4.61297  -1.74025  -1.10121 
 C                    -1.8353    0.21265   1.00742 
 H                    -1.40597   0.80856   1.838 
 H                    -1.94549  -0.81449   1.41932 
 
 -------------------
 Title Card Required
 -------------------
 Symbolic Z-matrix:
 Charge =  0 Multiplicity = 1
 C                     2.41201   2.65386  -0.24712 
 C                     2.69698   1.30558  -0.21668 
 C                     1.67756   0.36315   0.09792 
 C                     0.36996   0.83426   0.37751 
 C                     0.10215   2.23151   0.3459 
 C                     1.10328   3.12398   0.03641 
 H                     3.19158   3.37761  -0.48809 
 H                     3.70826   0.95923  -0.43208 
 H                    -0.91325   2.56523   0.57361 
 H                     0.90673   4.19527   0.00732 
 C                    -0.66451  -0.12019   0.71244 
 C                     1.90243  -1.05803   0.15262 
 C                    -0.41924  -1.50315   0.72863 
 H                    -1.0629   -2.17286   1.3131 
 C                     0.9279   -1.95225   0.48698 
 H                     1.1327   -3.02188   0.55929 
 O                    -1.92034   0.34711   0.89862 
 Cl                    3.48661  -1.65245  -0.20268 
 C                    -2.94655  -0.04742  -0.20794 
 C                    -2.71039  -1.48427  -0.47051 
 H                    -3.45351  -2.17639  -0.08237 
 C                    -4.24711   0.26568   0.51219 
 H                    -5.11223   0.13198  -0.1479 
 H                    -4.39152  -0.37562   1.39123 
 H                    -4.2623    1.30167   0.87681 
 C                    -2.66561   0.8909   -1.37063 
 H                    -1.65315   0.76313  -1.7742 
 H                    -3.36903   0.71504  -2.19383 
 H                    -2.7571    1.94335  -1.07488 
 C                    -1.49549  -1.92964  -0.89618 
 H                    -1.29486  -2.99713  -0.98528 
 H                    -0.83924  -1.33777  -1.53525 
 

 GradGradGradGradGradGradGradGradGradGradGradGradGradGradGradGradGradGrad
 Berny optimization.
 Initialization pass.
                           ----------------------------
                           !    Initial Parameters    !
                           ! (Angstroms and Degrees)  !
 --------------------------                            --------------------------
 ! Name  Definition        TS        Reactant  Product Derivative Info.         !
 --------------------------------------------------------------------------------
 ! R1    R(1,2)             1.3784    1.3754    1.397  estimate D2E/DX2         !
 ! R2    R(1,6)             1.4192    1.4221    1.3993 estimate D2E/DX2         !
 ! R3    R(1,7)             1.0907    1.0908    1.0919 estimate D2E/DX2         !
 ! R4    R(2,3)             1.4235    1.4276    1.4035 estimate D2E/DX2         !
 ! R5    R(2,8)             1.0904    1.0902    1.0909 estimate D2E/DX2         !
 ! R6    R(3,4)             1.4177    1.4191    1.413  estimate D2E/DX2         !
 ! R7    R(3,12)            1.4399    1.4327    1.4651 estimate D2E/DX2         !
 ! R8    R(4,5)             1.423     1.4257    1.4041 estimate D2E/DX2         !
 ! R9    R(4,11)            1.4468    1.4485    1.4864 estimate D2E/DX2         !
 ! R10   R(5,6)             1.3764    1.3741    1.3945 estimate D2E/DX2         !
 ! R11   R(5,9)             1.0928    1.0928    1.0945 estimate D2E/DX2         !
 ! R12   R(6,10)            1.0896    1.0891    1.09   estimate D2E/DX2         !
 ! R13   R(11,13)           1.4046    1.3799    1.5264 estimate D2E/DX2         !
 ! R14   R(11,17)           1.3528    1.3627    1.2183 estimate D2E/DX2         !
 ! R15   R(12,15)           1.3642    1.3731    1.341  estimate D2E/DX2         !
 ! R16   R(12,18)           1.7289    1.7273    1.7294 estimate D2E/DX2         !
 ! R17   R(13,14)           1.0975    1.0876    1.1312 estimate D2E/DX2         !
 ! R18   R(13,15)           1.4404    1.4174    1.4948 estimate D2E/DX2         !
 ! R19   R(13,30)           1.995     3.3564    1.5525 estimate D2E/DX2         !
 ! R20   R(15,16)           1.0915    1.092     1.0939 estimate D2E/DX2         !
 ! R21   R(17,19)           1.5599    1.486     4.1343 estimate D2E/DX2         !
 ! R22   R(19,20)           1.4796    1.511     1.3438 estimate D2E/DX2         !
 ! R23   R(19,22)           1.5192    1.523     1.4984 estimate D2E/DX2         !
 ! R24   R(19,26)           1.5203    1.5293    1.4951 estimate D2E/DX2         !
 ! R25   R(20,21)           1.0872    1.0919    1.0881 estimate D2E/DX2         !
 ! R26   R(20,30)           1.3622    1.33      1.497  estimate D2E/DX2         !
 ! R27   R(22,23)           1.0964    1.0969    1.099  estimate D2E/DX2         !
 ! R28   R(22,24)           1.0977    1.098     1.0974 estimate D2E/DX2         !
 ! R29   R(22,25)           1.0984    1.0987    1.0994 estimate D2E/DX2         !
 ! R30   R(26,27)           1.0974    1.0989    1.1033 estimate D2E/DX2         !
 ! R31   R(26,28)           1.097     1.096     1.0996 estimate D2E/DX2         !
 ! R32   R(26,29)           1.097     1.0969    1.0971 estimate D2E/DX2         !
 ! R33   R(30,31)           1.0898    1.0817    1.1087 estimate D2E/DX2         !
 ! R34   R(30,32)           1.0906    1.0843    1.1121 estimate D2E/DX2         !
 ! A1    A(2,1,6)         120.6799  120.7451  120.5678 estimate D2E/DX2         !
 ! A2    A(2,1,7)         120.4103  120.5042  119.6227 estimate D2E/DX2         !
 ! A3    A(6,1,7)         118.9097  118.7507  119.8095 estimate D2E/DX2         !
 ! A4    A(1,2,3)         120.2924  120.394   120.1196 estimate D2E/DX2         !
 ! A5    A(1,2,8)         119.8712  120.0855  118.879  estimate D2E/DX2         !
 ! A6    A(3,2,8)         119.8363  119.5205  121.0014 estimate D2E/DX2         !
 ! A7    A(2,3,4)         118.9534  118.7273  119.3685 estimate D2E/DX2         !
 ! A8    A(2,3,12)        123.3668  123.4279  122.736  estimate D2E/DX2         !
 ! A9    A(4,3,12)        117.6796  117.8449  117.8954 estimate D2E/DX2         !
 ! A10   A(3,4,5)         119.7009  119.7571  119.8799 estimate D2E/DX2         !
 ! A11   A(3,4,11)        119.0715  118.6352  121.4787 estimate D2E/DX2         !
 ! A12   A(5,4,11)        121.2196  121.6077  118.6413 estimate D2E/DX2         !
 ! A13   A(4,5,6)         120.3153  120.3473  120.3588 estimate D2E/DX2         !
 ! A14   A(4,5,9)         118.0393  118.125   119.1061 estimate D2E/DX2         !
 ! A15   A(6,5,9)         121.6454  121.5278  120.5351 estimate D2E/DX2         !
 ! A16   A(1,6,5)         120.0568  120.0293  119.7053 estimate D2E/DX2         !
 ! A17   A(1,6,10)        119.125   119.0336  120.1449 estimate D2E/DX2         !
 ! A18   A(5,6,10)        120.8181  120.9371  120.1498 estimate D2E/DX2         !
 ! A19   A(4,11,13)       121.8253  121.6168  118.8438 estimate D2E/DX2         !
 ! A20   A(4,11,17)       117.8861  111.6512  121.4969 estimate D2E/DX2         !
 ! A21   A(13,11,17)      120.0399  126.7318  119.6583 estimate D2E/DX2         !
 ! A22   A(3,12,15)       123.0044  122.4528  123.9372 estimate D2E/DX2         !
 ! A23   A(3,12,18)       118.3352  118.8628  117.0463 estimate D2E/DX2         !
 ! A24   A(15,12,18)      118.6555  118.6843  119.0165 estimate D2E/DX2         !
 ! A25   A(11,13,14)      120.3013  121.8077  105.9251 estimate D2E/DX2         !
 ! A26   A(11,13,15)      117.9264  119.3475  114.9923 estimate D2E/DX2         !
 ! A27   A(11,13,30)       96.1361   72.6434  109.5781 estimate D2E/DX2         !
 ! A28   A(14,13,15)      116.5894  118.8442  107.4267 estimate D2E/DX2         !
 ! A29   A(14,13,30)       89.2489   67.3168  108.2513 estimate D2E/DX2         !
 ! A30   A(15,13,30)      107.5326  134.4345  110.3605 estimate D2E/DX2         !
 ! A31   A(12,15,13)      120.3197  120.1028  122.6133 estimate D2E/DX2         !
 ! A32   A(12,15,16)      121.6389  121.1899  122.3893 estimate D2E/DX2         !
 ! A33   A(13,15,16)      118.0288  118.7073  114.9971 estimate D2E/DX2         !
 ! A34   A(11,17,19)      115.1956  122.8415   86.8897 estimate D2E/DX2         !
 ! A35   A(17,19,20)      105.4558  111.1022   73.056  estimate D2E/DX2         !
 ! A36   A(17,19,22)      100.0673  108.7499  159.3416 estimate D2E/DX2         !
 ! A37   A(17,19,26)      105.3584   99.3313   53.3222 estimate D2E/DX2         !
 ! A38   A(20,19,22)      114.8901  113.0788  121.0108 estimate D2E/DX2         !
 ! A39   A(20,19,26)      115.7316  110.998   123.8257 estimate D2E/DX2         !
 ! A40   A(22,19,26)      113.1737  112.7456  115.1619 estimate D2E/DX2         !
 ! A41   A(19,20,21)      116.4732  114.0979  121.0584 estimate D2E/DX2         !
 ! A42   A(19,20,30)      121.0181  124.0197  124.3528 estimate D2E/DX2         !
 ! A43   A(21,20,30)      120.8678  121.8572  114.5876 estimate D2E/DX2         !
 ! A44   A(19,22,23)      111.4065  111.6404  111.4003 estimate D2E/DX2         !
 ! A45   A(19,22,24)      111.8285  112.6995  113.0819 estimate D2E/DX2         !
 ! A46   A(19,22,25)      111.3193  111.143   111.0829 estimate D2E/DX2         !
 ! A47   A(23,22,24)      107.8845  107.1872  107.0051 estimate D2E/DX2         !
 ! A48   A(23,22,25)      107.6963  107.1094  106.95   estimate D2E/DX2         !
 ! A49   A(24,22,25)      106.4627  106.7447  106.9928 estimate D2E/DX2         !
 ! A50   A(19,26,27)      112.3267  111.0145  112.874  estimate D2E/DX2         !
 ! A51   A(19,26,28)      110.8837  111.3021  110.8427 estimate D2E/DX2         !
 ! A52   A(19,26,29)      111.7485  111.7436  112.4144 estimate D2E/DX2         !
 ! A53   A(27,26,28)      107.2751  107.655   106.5944 estimate D2E/DX2         !
 ! A54   A(27,26,29)      106.7256  106.9251  106.6833 estimate D2E/DX2         !
 ! A55   A(28,26,29)      107.6152  107.9913  107.0591 estimate D2E/DX2         !
 ! A56   A(13,30,20)       99.0177   68.8325  111.1086 estimate D2E/DX2         !
 ! A57   A(13,30,31)      100.175   122.7699  110.0114 estimate D2E/DX2         !
 ! A58   A(13,30,32)       92.0975   81.2035  109.8061 estimate D2E/DX2         !
 ! A59   A(20,30,31)      120.6633  123.3053  110.4558 estimate D2E/DX2         !
 ! A60   A(20,30,32)      122.8447  123.3524  110.3743 estimate D2E/DX2         !
 ! A61   A(31,30,32)      111.8941  113.3389  104.9101 estimate D2E/DX2         !
 ! D1    D(6,1,2,3)         0.138    -0.02      0.018  estimate D2E/DX2         !
 ! D2    D(6,1,2,8)      -179.7099  179.9764  179.9548 estimate D2E/DX2         !
 ! D3    D(7,1,2,3)      -179.99    179.9827 -179.9955 estimate D2E/DX2         !
 ! D4    D(7,1,2,8)         0.1621   -0.0209   -0.0586 estimate D2E/DX2         !
 ! D5    D(2,1,6,5)        -0.0012    0.0324   -0.0187 estimate D2E/DX2         !
 ! D6    D(2,1,6,10)      179.8624 -179.9735  179.9538 estimate D2E/DX2         !
 ! D7    D(7,1,6,5)      -179.8751 -179.9702  179.9948 estimate D2E/DX2         !
 ! D8    D(7,1,6,10)       -0.0115    0.0239   -0.0327 estimate D2E/DX2         !
 ! D9    D(1,2,3,4)         0.0252   -0.0304    0.0383 estimate D2E/DX2         !
 ! D10   D(1,2,3,12)     -179.7948  179.9322  179.9199 estimate D2E/DX2         !
 ! D11   D(8,2,3,4)       179.8732  179.9731 -179.8972 estimate D2E/DX2         !
 ! D12   D(8,2,3,12)        0.0532   -0.0642   -0.0156 estimate D2E/DX2         !
 ! D13   D(2,3,4,5)        -0.3193    0.0685   -0.0937 estimate D2E/DX2         !
 ! D14   D(2,3,4,11)     -179.3049 -179.9818  179.8592 estimate D2E/DX2         !
 ! D15   D(12,3,4,5)      179.5109 -179.8963 -179.981  estimate D2E/DX2         !
 ! D16   D(12,3,4,11)       0.5254    0.0534   -0.0281 estimate D2E/DX2         !
 ! D17   D(2,3,12,15)     178.3417 -179.9765 -177.5287 estimate D2E/DX2         !
 ! D18   D(2,3,12,18)      -0.8492   -0.0814    2.5305 estimate D2E/DX2         !
 ! D19   D(4,3,12,15)      -1.4805   -0.0135    2.3545 estimate D2E/DX2         !
 ! D20   D(4,3,12,18)     179.3286  179.8815 -177.5863 estimate D2E/DX2         !
 ! D21   D(3,4,5,6)         0.4592   -0.0573    0.0939 estimate D2E/DX2         !
 ! D22   D(3,4,5,9)      -179.5149  179.9494 -179.8774 estimate D2E/DX2         !
 ! D23   D(11,4,5,6)      179.4224  179.9946 -179.8604 estimate D2E/DX2         !
 ! D24   D(11,4,5,9)       -0.5517    0.0013    0.1683 estimate D2E/DX2         !
 ! D25   D(3,4,11,13)      -1.967    -0.0951   -4.0076 estimate D2E/DX2         !
 ! D26   D(3,4,11,17)    -176.2374 -179.9226  175.6264 estimate D2E/DX2         !
 ! D27   D(5,4,11,13)     179.0634  179.8536  175.9459 estimate D2E/DX2         !
 ! D28   D(5,4,11,17)       4.793     0.0261   -4.4201 estimate D2E/DX2         !
 ! D29   D(4,5,6,1)        -0.2981    0.0067   -0.0375 estimate D2E/DX2         !
 ! D30   D(4,5,6,10)      179.8407 -179.9873  179.99   estimate D2E/DX2         !
 ! D31   D(9,5,6,1)       179.6751  179.9997  179.9333 estimate D2E/DX2         !
 ! D32   D(9,5,6,10)       -0.1861    0.0057   -0.0392 estimate D2E/DX2         !
 ! D33   D(4,11,13,14)    157.7857 -179.6362  124.1152 estimate D2E/DX2         !
 ! D34   D(4,11,13,15)      4.0834    0.0922    5.6505 estimate D2E/DX2         !
 ! D35   D(4,11,13,30)   -109.4886 -131.6477 -119.3239 estimate D2E/DX2         !
 ! D36   D(17,11,13,14)   -28.0648    0.1638  -55.5257 estimate D2E/DX2         !
 ! D37   D(17,11,13,15)   178.233   179.8922 -173.9904 estimate D2E/DX2         !
 ! D38   D(17,11,13,30)    64.661    48.1523   61.0352 estimate D2E/DX2         !
 ! D39   D(4,11,17,19)    110.0271 -179.9021  172.7019 estimate D2E/DX2         !
 ! D40   D(13,11,17,19)   -64.3497    0.2812   -7.667  estimate D2E/DX2         !
 ! D41   D(3,12,15,13)      3.7313    0.0102   -0.3338 estimate D2E/DX2         !
 ! D42   D(3,12,15,16)   -177.5837  179.9571  179.4416 estimate D2E/DX2         !
 ! D43   D(18,12,15,13)  -177.0802 -179.885   179.6059 estimate D2E/DX2         !
 ! D44   D(18,12,15,16)     1.6047    0.0619   -0.6187 estimate D2E/DX2         !
 ! D45   D(11,13,15,12)    -4.9282   -0.0493   -3.6634 estimate D2E/DX2         !
 ! D46   D(11,13,15,16)   176.3401 -179.9975  176.5459 estimate D2E/DX2         !
 ! D47   D(14,13,15,12)  -159.6034  179.6872 -121.2837 estimate D2E/DX2         !
 ! D48   D(14,13,15,16)    21.6649   -0.2609   58.9256 estimate D2E/DX2         !
 ! D49   D(30,13,15,12)   102.1892   94.0784  120.9015 estimate D2E/DX2         !
 ! D50   D(30,13,15,16)   -76.5425  -85.8698  -58.8892 estimate D2E/DX2         !
 ! D51   D(11,13,30,20)   -60.0133  -90.8837 -137.2979 estimate D2E/DX2         !
 ! D52   D(11,13,30,31)   176.4062  152.3073  100.067  estimate D2E/DX2         !
 ! D53   D(11,13,30,32)    63.7203   40.1501  -14.9075 estimate D2E/DX2         !
 ! D54   D(14,13,30,20)    60.3904   45.9309  -22.2149 estimate D2E/DX2         !
 ! D55   D(14,13,30,31)   -63.1901  -70.8781 -144.8501 estimate D2E/DX2         !
 ! D56   D(14,13,30,32)  -175.876   176.9647  100.1755 estimate D2E/DX2         !
 ! D57   D(15,13,30,20)   178.1199  154.7433   95.0914 estimate D2E/DX2         !
 ! D58   D(15,13,30,31)    54.5393   37.9342  -27.5437 estimate D2E/DX2         !
 ! D59   D(15,13,30,32)   -58.1465  -74.223  -142.5182 estimate D2E/DX2         !
 ! D60   D(11,17,19,20)    44.5535  -60.928   -21.8756 estimate D2E/DX2         !
 ! D61   D(11,17,19,22)   164.0644   64.152   114.0608 estimate D2E/DX2         !
 ! D62   D(11,17,19,26)   -78.3393 -177.8422  175.8554 estimate D2E/DX2         !
 ! D63   D(17,19,20,21)   106.0573  154.2387  162.7245 estimate D2E/DX2         !
 ! D64   D(17,19,20,30)   -59.4624  -27.558   -16.8619 estimate D2E/DX2         !
 ! D65   D(22,19,20,21)    -3.1035   31.6263   -0.6406 estimate D2E/DX2         !
 ! D66   D(22,19,20,30)  -168.6232 -150.1704  179.7729 estimate D2E/DX2         !
 ! D67   D(26,19,20,21)  -137.9473  -96.2324  179.8231 estimate D2E/DX2         !
 ! D68   D(26,19,20,30)    56.5329   81.9709    0.2366 estimate D2E/DX2         !
 ! D69   D(17,19,22,23)   175.0472  159.7557  102.8509 estimate D2E/DX2         !
 ! D70   D(17,19,22,24)   -64.1319  -79.5437 -136.5876 estimate D2E/DX2         !
 ! D71   D(17,19,22,25)    54.8169   40.2321  -16.2715 estimate D2E/DX2         !
 ! D72   D(20,19,22,23)   -72.5727  -76.3317 -128.064  estimate D2E/DX2         !
 ! D73   D(20,19,22,24)    48.2482   44.3688   -7.5026 estimate D2E/DX2         !
 ! D74   D(20,19,22,25)   167.197   164.1446  112.8135 estimate D2E/DX2         !
 ! D75   D(26,19,22,23)    63.4176   50.6094   51.5104 estimate D2E/DX2         !
 ! D76   D(26,19,22,24)  -175.7614  171.3099  172.0718 estimate D2E/DX2         !
 ! D77   D(26,19,22,25)   -56.8126  -68.9142  -67.6121 estimate D2E/DX2         !
 ! D78   D(17,19,26,27)    62.111    52.4694   -5.2834 estimate D2E/DX2         !
 ! D79   D(17,19,26,28)  -177.8701  172.3709  114.2079 estimate D2E/DX2         !
 ! D80   D(17,19,26,29)   -57.8086  -66.8031 -126.0177 estimate D2E/DX2         !
 ! D81   D(20,19,26,27)   -53.9393  -64.5236  -25.8127 estimate D2E/DX2         !
 ! D82   D(20,19,26,28)    66.0796   55.3779   93.6786 estimate D2E/DX2         !
 ! D83   D(20,19,26,29)  -173.8588  176.2038 -146.547  estimate D2E/DX2         !
 ! D84   D(22,19,26,27)   170.4574  167.4371  154.6264 estimate D2E/DX2         !
 ! D85   D(22,19,26,28)   -69.5237  -72.6614  -85.8823 estimate D2E/DX2         !
 ! D86   D(22,19,26,29)    50.5378   48.1645   33.8921 estimate D2E/DX2         !
 ! D87   D(19,20,30,13)    65.8132   65.0326   85.688  estimate D2E/DX2         !
 ! D88   D(19,20,30,31)   173.3929 -178.858  -151.9339 estimate D2E/DX2         !
 ! D89   D(19,20,30,32)   -32.6145    1.8525  -36.3727 estimate D2E/DX2         !
 ! D90   D(21,20,30,13)   -99.0714 -116.8985  -93.9224 estimate D2E/DX2         !
 ! D91   D(21,20,30,31)     8.5083   -0.7891   28.4557 estimate D2E/DX2         !
 ! D92   D(21,20,30,32)   162.5009  179.9215  144.0169 estimate D2E/DX2         !
 --------------------------------------------------------------------------------
 Trust Radius=3.00D-01 FncErr=1.00D-07 GrdErr=1.00D-07
 Number of steps in this run=    192 maximum allowed number of steps=    192.
 Search for a saddle point of order  1.
 GradGradGradGradGradGradGradGradGradGradGradGradGradGradGradGradGradGrad

                          Input orientation:                          
 ---------------------------------------------------------------------
 Center     Atomic      Atomic             Coordinates (Angstroms)
 Number     Number       Type             X           Y           Z
 ---------------------------------------------------------------------
      1          6           0        2.412014    2.653863   -0.247117
      2          6           0        2.696977    1.305579   -0.216681
      3          6           0        1.677559    0.363151    0.097922
      4          6           0        0.369956    0.834255    0.377509
      5          6           0        0.102146    2.231512    0.345899
      6          6           0        1.103282    3.123981    0.036409
      7          1           0        3.191575    3.377612   -0.488092
      8          1           0        3.708258    0.959228   -0.432079
      9          1           0       -0.913248    2.565233    0.573614
     10          1           0        0.906728    4.195274    0.007321
     11          6           0       -0.664509   -0.120192    0.712435
     12          6           0        1.902430   -1.058027    0.152618
     13          6           0       -0.419242   -1.503149    0.728625
     14          1           0       -1.062900   -2.172858    1.313100
     15          6           0        0.927904   -1.952248    0.486984
     16          1           0        1.132704   -3.021880    0.559285
     17          8           0       -1.920340    0.347111    0.898618
     18         17           0        3.486605   -1.652448   -0.202684
     19          6           0       -2.946546   -0.047415   -0.207942
     20          6           0       -2.710386   -1.484270   -0.470511
     21          1           0       -3.453509   -2.176392   -0.082373
     22          6           0       -4.247111    0.265675    0.512189
     23          1           0       -5.112231    0.131975   -0.147903
     24          1           0       -4.391524   -0.375624    1.391232
     25          1           0       -4.262299    1.301673    0.876812
     26          6           0       -2.665606    0.890900   -1.370626
     27          1           0       -1.653153    0.763125   -1.774199
     28          1           0       -3.369027    0.715039   -2.193829
     29          1           0       -2.757095    1.943354   -1.074879
     30          6           0       -1.495493   -1.929635   -0.896182
     31          1           0       -1.294855   -2.997130   -0.985277
     32          1           0       -0.839235   -1.337770   -1.535246
 ---------------------------------------------------------------------
                    Distance matrix (angstroms):
                    1          2          3          4          5
     1  C    0.000000
     2  C    1.378405   0.000000
     3  C    2.430193   1.423502   0.000000
     4  C    2.805554   2.447496   1.417721   0.000000
     5  C    2.421887   2.811938   2.456459   1.423042   0.000000
     6  C    1.419217   2.431153   2.820596   2.428366   1.376430
     7  H    1.090686   2.147466   3.423833   3.896083   3.399067
     8  H    2.141553   1.090433   2.181730   3.437341   3.902307
     9  H    3.426196   3.904487   3.433326   2.163644   1.092817
    10  H    2.169464   3.406685   3.909930   3.423684   2.149034
    11  C    4.252189   3.767714   2.469115   1.446811   2.500524
    12  C    3.767969   2.520778   1.439898   2.445360   3.754923
    13  C    5.123361   4.300393   2.877053   2.491902   3.790253
    14  H    6.148702   5.345693   3.926591   3.459933   4.657390
    15  C    4.894665   3.773354   2.464635   2.843922   4.266805
    16  H    5.873753   4.666473   3.459503   3.935048   5.357771
    17  O    5.040149   4.845840   3.685953   2.398816   2.819027
    18  Cl   4.438585   3.061639   2.725005   4.029121   5.180796
    19  C    6.001050   5.803449   4.652361   3.481276   3.846397
    20  C    6.588857   6.089931   4.794804   3.947557   4.731162
    21  H    7.600188   7.068991   5.727970   4.888187   5.679412
    22  C    7.115050   7.059250   5.939935   4.653894   4.775794
    23  H    7.936248   7.897202   6.798170   5.551903   5.642838
    24  H    7.625622   7.460474   6.249177   5.016287   5.299335
    25  H    6.902035   7.044662   6.063778   4.682475   4.493868
    26  C    5.491132   5.500986   4.615001   3.503401   3.521953
    27  H    4.736291   4.652284   3.841674   2.954298   3.119623
    28  H    6.400716   6.407360   5.553736   4.539382   4.560587
    29  H    5.282963   5.557892   4.851666   3.621875   3.205761
    30  C    6.057916   5.339020   4.038981   3.569492   4.627133
    31  H    6.798491   5.919355   4.615198   4.394120   5.573360
    32  H    5.306885   4.607679   3.448858   3.136633   4.143028
                    6          7          8          9         10
     6  C    0.000000
     7  H    2.168040   0.000000
     8  H    3.419289   2.473597   0.000000
     9  H    2.160366   4.317030   4.994896   0.000000
    10  H    1.089563   2.476799   4.302748   2.507994   0.000000
    11  C    3.755896   5.342778   4.647166   2.700491   4.646420
    12  C    4.259264   4.663400   2.769874   4.607960   5.348804
    13  C    4.920119   6.191949   4.944370   4.101195   5.894956
    14  H    5.863343   7.221673   5.968213   4.797785   6.792466
    15  C    5.099203   5.872171   4.129375   4.879035   6.166243
    16  H    6.168134   6.803635   4.844120   5.949954   7.241757
    17  O    4.194842   6.102342   5.816060   2.457626   4.857477
    18  Cl   5.343376   5.046782   2.631084   6.144117   6.394976
    19  C    5.149618   7.034616   6.734240   3.401626   5.735370
    20  C    6.003083   7.646656   6.868126   4.551744   6.750486
    21  H    6.990880   8.669989   7.825939   5.419064   7.721259
    22  C    6.084652   8.125193   8.041179   4.050479   6.500669
    23  H    6.900628   8.922056   8.863754   4.906403   7.263770
    24  H    6.653997   8.667297   8.409088   4.627693   7.133007
    25  H    5.728573   7.857017   8.084568   3.592305   5.987302
    26  C    4.601186   6.424109   6.442956   3.107124   5.057588
    27  H    4.055845   5.653406   5.530323   3.050783   4.637505
    28  H    5.547838   7.282879   7.297353   4.136763   5.936260
    29  H    4.187046   6.147202   6.571338   2.550301   4.434625
    30  C    5.758680   7.092391   5.969920   4.764782   6.640896
    31  H    6.653037   7.811055   6.402338   5.789270   7.587021
    32  H    5.113775   6.291167   5.212760   4.436913   6.003539
                   11         12         13         14         15
    11  C    0.000000
    12  C    2.789643   0.000000
    13  C    1.404631   2.433121   0.000000
    14  H    2.175535   3.373833   1.097459   0.000000
    15  C    2.437834   1.364233   1.440445   2.166665   0.000000
    16  H    3.416610   2.148156   2.178017   2.471791   1.091459
    17  O    1.352830   4.140592   2.388651   2.693927   3.683611
    18  Cl   4.518517   1.728926   4.018117   4.823528   2.666922
    19  C    2.461724   4.966277   3.063264   3.221676   4.372948
    20  C    2.728678   4.674189   2.586044   2.523813   3.791168
    21  H    3.555025   5.476499   3.212125   2.768098   4.423934
    22  C    3.608882   6.300661   4.222341   4.089878   5.630328
    23  H    4.537180   7.121228   5.046393   4.883018   6.421082
    24  H    3.796927   6.450868   4.182031   3.783635   5.621363
    25  H    3.872055   6.640521   4.760050   4.743297   6.138255
    26  C    3.060366   5.194761   3.896726   4.376947   4.944443
    27  H    2.817981   4.435244   3.594810   4.301141   4.375849
    28  H    4.056895   6.036376   4.707688   5.094774   5.724054
    29  H    3.439714   5.676813   4.538344   5.051331   5.585190
    30  C    2.559740   3.661361   1.995045   2.264337   2.790432
    31  H    3.399461   3.908652   2.436419   2.452706   2.863562
    32  H    2.562244   3.231697   2.308432   2.976655   2.754955
                   16         17         18         19         20
    16  H    0.000000
    17  O    4.559202   0.000000
    18  Cl   2.827860   5.869085   0.000000
    19  C    5.106502   1.559880   6.630354   0.000000
    20  C    4.265450   2.419224   6.205055   1.479617   0.000000
    21  H    4.707433   3.111433   6.960903   2.192104   1.087159
    22  C    6.304970   2.360047   8.000038   1.519238   2.527752
    23  H    7.031794   3.365956   8.782206   2.173931   2.912934
    24  H    6.181578   2.621405   8.138536   2.180147   2.742519
    25  H    6.920982   2.529118   8.362874   2.174382   3.461964
    26  C    5.784597   2.449611   6.758876   1.520262   2.540402
    27  H    5.247133   2.718162   5.892518   2.187007   2.805018
    28  H    6.466048   3.434719   7.521259   2.168772   2.870643
    29  H    6.515718   2.672609   7.257707   2.179595   3.480811
    30  C    3.196686   2.930081   5.037765   2.474264   1.362171
    31  H    2.877382   3.888990   5.028218   3.468883   2.134820
    32  H    3.333441   3.151397   4.537360   2.804908   2.157853
                   21         22         23         24         25
    21  H    0.000000
    22  C    2.635716   0.000000
    23  H    2.843275   1.096371   0.000000
    24  H    2.508814   1.097650   1.773700   0.000000
    25  H    3.697447   1.098395   1.772179   1.759162   0.000000
    26  C    3.418869   2.537136   2.838484   3.494386   2.787318
    27  H    3.839833   3.493372   3.874069   4.337670   3.758395
    28  H    3.581307   2.880190   2.750370   3.884290   3.251294
    29  H    4.294458   2.748370   3.112402   3.759085   2.546859
    30  C    2.134713   3.791345   4.229770   4.004274   4.608696
    31  H    2.479644   4.648023   5.006481   4.702068   5.545521
    32  H    3.106212   4.286799   4.726877   4.701995   4.949955
                   26         27         28         29         30
    26  C    0.000000
    27  H    1.097387   0.000000
    28  H    1.096992   1.767095   0.000000
    29  H    1.097040   1.760874   1.770669   0.000000
    30  C    3.090256   2.836675   3.491177   4.077207   0.000000
    31  H    4.140559   3.858794   4.420745   5.153111   1.089834
    32  H    2.886122   2.265683   3.323794   3.828302   1.090588
                   31         32
    31  H    0.000000
    32  H    1.806525   0.000000
 Stoichiometry    C15H15ClO
 Framework group  C1[X(C15H15ClO)]
 Deg. of freedom    90
 Full point group                 C1      NOp   1
 Largest Abelian subgroup         C1      NOp   1
 Largest concise Abelian subgroup C1      NOp   1
                         Standard orientation:                         
 ---------------------------------------------------------------------
 Center     Atomic      Atomic             Coordinates (Angstroms)
 Number     Number       Type             X           Y           Z
 ---------------------------------------------------------------------
      1          6           0       -2.412014    2.653863    0.247117
      2          6           0       -2.696977    1.305579    0.216681
      3          6           0       -1.677559    0.363151   -0.097922
      4          6           0       -0.369956    0.834255   -0.377509
      5          6           0       -0.102146    2.231512   -0.345899
      6          6           0       -1.103282    3.123981   -0.036409
      7          1           0       -3.191575    3.377612    0.488092
      8          1           0       -3.708258    0.959228    0.432079
      9          1           0        0.913248    2.565233   -0.573614
     10          1           0       -0.906728    4.195274   -0.007321
     11          6           0        0.664509   -0.120192   -0.712435
     12          6           0       -1.902430   -1.058027   -0.152618
     13          6           0        0.419242   -1.503149   -0.728625
     14          1           0        1.062900   -2.172858   -1.313100
     15          6           0       -0.927904   -1.952248   -0.486984
     16          1           0       -1.132704   -3.021880   -0.559285
     17          8           0        1.920340    0.347111   -0.898618
     18         17           0       -3.486605   -1.652448    0.202684
     19          6           0        2.946546   -0.047415    0.207942
     20          6           0        2.710386   -1.484270    0.470511
     21          1           0        3.453509   -2.176392    0.082373
     22          6           0        4.247111    0.265675   -0.512189
     23          1           0        5.112231    0.131975    0.147903
     24          1           0        4.391524   -0.375624   -1.391232
     25          1           0        4.262299    1.301673   -0.876812
     26          6           0        2.665606    0.890900    1.370626
     27          1           0        1.653153    0.763125    1.774199
     28          1           0        3.369027    0.715039    2.193829
     29          1           0        2.757095    1.943354    1.074879
     30          6           0        1.495493   -1.929635    0.896182
     31          1           0        1.294855   -2.997130    0.985277
     32          1           0        0.839235   -1.337770    1.535246
 ---------------------------------------------------------------------
 Rotational constants (GHZ):      0.7011279      0.3389011      0.2489550
 Standard basis: VSTO-6G (5D, 7F)
 There are    89 symmetry adapted cartesian basis functions of A   symmetry.
 There are    88 symmetry adapted basis functions of A   symmetry.
    88 basis functions,   534 primitive gaussians,    89 cartesian basis functions
    44 alpha electrons       44 beta electrons
       nuclear repulsion energy       659.9696265564 Hartrees.
 Integral buffers will be    131072 words long.
 Regular integral format.
 Two-electron integral symmetry is turned off.
 Nuclear repulsion after empirical dispersion term =      659.9583222237 Hartrees.
 ------------------------------------------------------------------------------
 Polarizable Continuum Model (PCM)
 =================================
 Model                : C-PCM.
 Atomic radii         : UFF (Universal Force Field).
 Polarization charges : Total charges.
 Charge compensation  : None.
 Solution method      : On-the-fly selection.
 Cavity type          : Scaled VdW (van der Waals Surface) (Alpha=1.100).
 Cavity algorithm     : GePol (No added spheres)
                        Default sphere list used, NSphG=   32.
                        Lebedev-Laikov grids with approx.  5.0 points / Ang**2.
                        Smoothing algorithm: Karplus/York (Gamma=1.0000).
                        Polarization charges: spherical gaussians, with
                                              point-specific exponents (IZeta= 3).
                        Self-potential: point-specific (ISelfS= 7).
                        Self-field    : sphere-specific E.n sum rule (ISelfD= 2).
 1st derivatives      : Analytical E(r).r(x)/FMM algorithm (CHGder, D1EAlg=3).
                        Cavity 1st derivative terms included.
 Solvent              : Toluene, Eps=   2.374100 Eps(inf)=   2.238315
 ------------------------------------------------------------------------------
 Do NDO integrals.
 One-electron integrals computed using PRISM.
 PrsmSu:  requested number of processors reduced to:   2 ShMem   1 Linda.
 NBasis=    88 RedAO= F EigKep=  0.00D+00  NBF=    88
 NBsUse=    88 1.00D-04 EigRej=  0.00D+00 NBFU=    88
 Nonelectrostatic core Hamiltonian diagonalized for initial guess.
 Overlap will be assumed to be unity.
 Keep J ints in memory in canonical form, NReq=9778462.
 Requested convergence on RMS density matrix=1.00D-08 within 128 cycles.
 Requested convergence on MAX density matrix=1.00D-06.
 Requested convergence on             energy=1.00D-06.
 No special actions if energy rises.
 Inv3:  Mode=1 IEnd=    15649968.
 Iteration    1 A*A^-1 deviation from unit magnitude is 5.55D-15 for   2280.
 Iteration    1 A*A^-1 deviation from orthogonality  is 2.36D-15 for   1810    111.
 Iteration    1 A^-1*A deviation from unit magnitude is 5.55D-15 for   2280.
 Iteration    1 A^-1*A deviation from orthogonality  is 1.63D-15 for   1086    251.
 Error on total polarization charges = -0.00001
 SCF Done:  E(RPM6D3) =  0.144783091317E-01 A.U. after   22 cycles
            NFock= 21  Conv=0.41D-08     -V/T= 1.0003

 **********************************************************************

            Population analysis using the SCF density.

 **********************************************************************

 Orbital symmetries:
       Occupied  (A) (A) (A) (A) (A) (A) (A) (A) (A) (A) (A) (A)
                 (A) (A) (A) (A) (A) (A) (A) (A) (A) (A) (A) (A)
                 (A) (A) (A) (A) (A) (A) (A) (A) (A) (A) (A) (A)
                 (A) (A) (A) (A) (A) (A) (A) (A)
       Virtual   (A) (A) (A) (A) (A) (A) (A) (A) (A) (A) (A) (A)
                 (A) (A) (A) (A) (A) (A) (A) (A) (A) (A) (A) (A)
                 (A) (A) (A) (A) (A) (A) (A) (A) (A) (A) (A) (A)
                 (A) (A) (A) (A) (A) (A) (A) (A)
 The electronic state is 1-A.
 Alpha  occ. eigenvalues --   -1.13513  -1.11153  -1.07919  -1.04751  -1.00986
 Alpha  occ. eigenvalues --   -0.98006  -0.96129  -0.94650  -0.90706  -0.89611
 Alpha  occ. eigenvalues --   -0.81796  -0.80949  -0.79575  -0.76925  -0.71074
 Alpha  occ. eigenvalues --   -0.66233  -0.65217  -0.62936  -0.60793  -0.59534
 Alpha  occ. eigenvalues --   -0.56993  -0.56626  -0.55680  -0.54516  -0.53917
 Alpha  occ. eigenvalues --   -0.52843  -0.52202  -0.50685  -0.49981  -0.49448
 Alpha  occ. eigenvalues --   -0.48726  -0.48056  -0.46855  -0.46574  -0.45711
 Alpha  occ. eigenvalues --   -0.45043  -0.44255  -0.42844  -0.40997  -0.39228
 Alpha  occ. eigenvalues --   -0.38593  -0.37671  -0.34152  -0.31069
 Alpha virt. eigenvalues --   -0.03032  -0.02414   0.01775   0.02507   0.02771
 Alpha virt. eigenvalues --    0.04908   0.07837   0.09782   0.12568   0.12873
 Alpha virt. eigenvalues --    0.13525   0.14328   0.14767   0.15064   0.15296
 Alpha virt. eigenvalues --    0.15459   0.16042   0.16681   0.17174   0.17450
 Alpha virt. eigenvalues --    0.18446   0.18646   0.19764   0.19871   0.20083
 Alpha virt. eigenvalues --    0.20585   0.20657   0.20681   0.20830   0.21047
 Alpha virt. eigenvalues --    0.21165   0.21428   0.21881   0.21904   0.22083
 Alpha virt. eigenvalues --    0.22396   0.23165   0.24255   0.24704   3.24051
 Alpha virt. eigenvalues --    3.24080   3.24157   3.25432   3.25483
          Condensed to atoms (all electrons):
               1          2          3          4          5          6
     1  C    4.109922   0.000000   0.000000   0.000000   0.000000   0.000000
     2  C    0.000000   4.180360   0.000000   0.000000   0.000000   0.000000
     3  C    0.000000   0.000000   3.962985   0.000000   0.000000   0.000000
     4  C    0.000000   0.000000   0.000000   4.100960   0.000000   0.000000
     5  C    0.000000   0.000000   0.000000   0.000000   4.103041   0.000000
     6  C    0.000000   0.000000   0.000000   0.000000   0.000000   4.171647
     7  H    0.000000   0.000000   0.000000   0.000000   0.000000   0.000000
     8  H    0.000000   0.000000   0.000000   0.000000   0.000000   0.000000
     9  H    0.000000   0.000000   0.000000   0.000000   0.000000   0.000000
    10  H    0.000000   0.000000   0.000000   0.000000   0.000000   0.000000
    11  C    0.000000   0.000000   0.000000   0.000000   0.000000   0.000000
    12  C    0.000000   0.000000   0.000000   0.000000   0.000000   0.000000
    13  C    0.000000   0.000000   0.000000   0.000000   0.000000   0.000000
    14  H    0.000000   0.000000   0.000000   0.000000   0.000000   0.000000
    15  C    0.000000   0.000000   0.000000   0.000000   0.000000   0.000000
    16  H    0.000000   0.000000   0.000000   0.000000   0.000000   0.000000
    17  O    0.000000   0.000000   0.000000   0.000000   0.000000   0.000000
    18  Cl   0.000000   0.000000   0.000000   0.000000   0.000000   0.000000
    19  C    0.000000   0.000000   0.000000   0.000000   0.000000   0.000000
    20  C    0.000000   0.000000   0.000000   0.000000   0.000000   0.000000
    21  H    0.000000   0.000000   0.000000   0.000000   0.000000   0.000000
    22  C    0.000000   0.000000   0.000000   0.000000   0.000000   0.000000
    23  H    0.000000   0.000000   0.000000   0.000000   0.000000   0.000000
    24  H    0.000000   0.000000   0.000000   0.000000   0.000000   0.000000
    25  H    0.000000   0.000000   0.000000   0.000000   0.000000   0.000000
    26  C    0.000000   0.000000   0.000000   0.000000   0.000000   0.000000
    27  H    0.000000   0.000000   0.000000   0.000000   0.000000   0.000000
    28  H    0.000000   0.000000   0.000000   0.000000   0.000000   0.000000
    29  H    0.000000   0.000000   0.000000   0.000000   0.000000   0.000000
    30  C    0.000000   0.000000   0.000000   0.000000   0.000000   0.000000
    31  H    0.000000   0.000000   0.000000   0.000000   0.000000   0.000000
    32  H    0.000000   0.000000   0.000000   0.000000   0.000000   0.000000
               7          8          9         10         11         12
     1  C    0.000000   0.000000   0.000000   0.000000   0.000000   0.000000
     2  C    0.000000   0.000000   0.000000   0.000000   0.000000   0.000000
     3  C    0.000000   0.000000   0.000000   0.000000   0.000000   0.000000
     4  C    0.000000   0.000000   0.000000   0.000000   0.000000   0.000000
     5  C    0.000000   0.000000   0.000000   0.000000   0.000000   0.000000
     6  C    0.000000   0.000000   0.000000   0.000000   0.000000   0.000000
     7  H    0.846869   0.000000   0.000000   0.000000   0.000000   0.000000
     8  H    0.000000   0.831452   0.000000   0.000000   0.000000   0.000000
     9  H    0.000000   0.000000   0.832349   0.000000   0.000000   0.000000
    10  H    0.000000   0.000000   0.000000   0.842082   0.000000   0.000000
    11  C    0.000000   0.000000   0.000000   0.000000   3.701224   0.000000
    12  C    0.000000   0.000000   0.000000   0.000000   0.000000   4.029330
    13  C    0.000000   0.000000   0.000000   0.000000   0.000000   0.000000
    14  H    0.000000   0.000000   0.000000   0.000000   0.000000   0.000000
    15  C    0.000000   0.000000   0.000000   0.000000   0.000000   0.000000
    16  H    0.000000   0.000000   0.000000   0.000000   0.000000   0.000000
    17  O    0.000000   0.000000   0.000000   0.000000   0.000000   0.000000
    18  Cl   0.000000   0.000000   0.000000   0.000000   0.000000   0.000000
    19  C    0.000000   0.000000   0.000000   0.000000   0.000000   0.000000
    20  C    0.000000   0.000000   0.000000   0.000000   0.000000   0.000000
    21  H    0.000000   0.000000   0.000000   0.000000   0.000000   0.000000
    22  C    0.000000   0.000000   0.000000   0.000000   0.000000   0.000000
    23  H    0.000000   0.000000   0.000000   0.000000   0.000000   0.000000
    24  H    0.000000   0.000000   0.000000   0.000000   0.000000   0.000000
    25  H    0.000000   0.000000   0.000000   0.000000   0.000000   0.000000
    26  C    0.000000   0.000000   0.000000   0.000000   0.000000   0.000000
    27  H    0.000000   0.000000   0.000000   0.000000   0.000000   0.000000
    28  H    0.000000   0.000000   0.000000   0.000000   0.000000   0.000000
    29  H    0.000000   0.000000   0.000000   0.000000   0.000000   0.000000
    30  C    0.000000   0.000000   0.000000   0.000000   0.000000   0.000000
    31  H    0.000000   0.000000   0.000000   0.000000   0.000000   0.000000
    32  H    0.000000   0.000000   0.000000   0.000000   0.000000   0.000000
              13         14         15         16         17         18
     1  C    0.000000   0.000000   0.000000   0.000000   0.000000   0.000000
     2  C    0.000000   0.000000   0.000000   0.000000   0.000000   0.000000
     3  C    0.000000   0.000000   0.000000   0.000000   0.000000   0.000000
     4  C    0.000000   0.000000   0.000000   0.000000   0.000000   0.000000
     5  C    0.000000   0.000000   0.000000   0.000000   0.000000   0.000000
     6  C    0.000000   0.000000   0.000000   0.000000   0.000000   0.000000
     7  H    0.000000   0.000000   0.000000   0.000000   0.000000   0.000000
     8  H    0.000000   0.000000   0.000000   0.000000   0.000000   0.000000
     9  H    0.000000   0.000000   0.000000   0.000000   0.000000   0.000000
    10  H    0.000000   0.000000   0.000000   0.000000   0.000000   0.000000
    11  C    0.000000   0.000000   0.000000   0.000000   0.000000   0.000000
    12  C    0.000000   0.000000   0.000000   0.000000   0.000000   0.000000
    13  C    4.256058   0.000000   0.000000   0.000000   0.000000   0.000000
    14  H    0.000000   0.811107   0.000000   0.000000   0.000000   0.000000
    15  C    0.000000   0.000000   4.131482   0.000000   0.000000   0.000000
    16  H    0.000000   0.000000   0.000000   0.829162   0.000000   0.000000
    17  O    0.000000   0.000000   0.000000   0.000000   6.503223   0.000000
    18  Cl   0.000000   0.000000   0.000000   0.000000   0.000000   7.098584
    19  C    0.000000   0.000000   0.000000   0.000000   0.000000   0.000000
    20  C    0.000000   0.000000   0.000000   0.000000   0.000000   0.000000
    21  H    0.000000   0.000000   0.000000   0.000000   0.000000   0.000000
    22  C    0.000000   0.000000   0.000000   0.000000   0.000000   0.000000
    23  H    0.000000   0.000000   0.000000   0.000000   0.000000   0.000000
    24  H    0.000000   0.000000   0.000000   0.000000   0.000000   0.000000
    25  H    0.000000   0.000000   0.000000   0.000000   0.000000   0.000000
    26  C    0.000000   0.000000   0.000000   0.000000   0.000000   0.000000
    27  H    0.000000   0.000000   0.000000   0.000000   0.000000   0.000000
    28  H    0.000000   0.000000   0.000000   0.000000   0.000000   0.000000
    29  H    0.000000   0.000000   0.000000   0.000000   0.000000   0.000000
    30  C    0.000000   0.000000   0.000000   0.000000   0.000000   0.000000
    31  H    0.000000   0.000000   0.000000   0.000000   0.000000   0.000000
    32  H    0.000000   0.000000   0.000000   0.000000   0.000000   0.000000
              19         20         21         22         23         24
     1  C    0.000000   0.000000   0.000000   0.000000   0.000000   0.000000
     2  C    0.000000   0.000000   0.000000   0.000000   0.000000   0.000000
     3  C    0.000000   0.000000   0.000000   0.000000   0.000000   0.000000
     4  C    0.000000   0.000000   0.000000   0.000000   0.000000   0.000000
     5  C    0.000000   0.000000   0.000000   0.000000   0.000000   0.000000
     6  C    0.000000   0.000000   0.000000   0.000000   0.000000   0.000000
     7  H    0.000000   0.000000   0.000000   0.000000   0.000000   0.000000
     8  H    0.000000   0.000000   0.000000   0.000000   0.000000   0.000000
     9  H    0.000000   0.000000   0.000000   0.000000   0.000000   0.000000
    10  H    0.000000   0.000000   0.000000   0.000000   0.000000   0.000000
    11  C    0.000000   0.000000   0.000000   0.000000   0.000000   0.000000
    12  C    0.000000   0.000000   0.000000   0.000000   0.000000   0.000000
    13  C    0.000000   0.000000   0.000000   0.000000   0.000000   0.000000
    14  H    0.000000   0.000000   0.000000   0.000000   0.000000   0.000000
    15  C    0.000000   0.000000   0.000000   0.000000   0.000000   0.000000
    16  H    0.000000   0.000000   0.000000   0.000000   0.000000   0.000000
    17  O    0.000000   0.000000   0.000000   0.000000   0.000000   0.000000
    18  Cl   0.000000   0.000000   0.000000   0.000000   0.000000   0.000000
    19  C    3.524229   0.000000   0.000000   0.000000   0.000000   0.000000
    20  C    0.000000   4.370421   0.000000   0.000000   0.000000   0.000000
    21  H    0.000000   0.000000   0.833478   0.000000   0.000000   0.000000
    22  C    0.000000   0.000000   0.000000   4.556058   0.000000   0.000000
    23  H    0.000000   0.000000   0.000000   0.000000   0.824853   0.000000
    24  H    0.000000   0.000000   0.000000   0.000000   0.000000   0.823565
    25  H    0.000000   0.000000   0.000000   0.000000   0.000000   0.000000
    26  C    0.000000   0.000000   0.000000   0.000000   0.000000   0.000000
    27  H    0.000000   0.000000   0.000000   0.000000   0.000000   0.000000
    28  H    0.000000   0.000000   0.000000   0.000000   0.000000   0.000000
    29  H    0.000000   0.000000   0.000000   0.000000   0.000000   0.000000
    30  C    0.000000   0.000000   0.000000   0.000000   0.000000   0.000000
    31  H    0.000000   0.000000   0.000000   0.000000   0.000000   0.000000
    32  H    0.000000   0.000000   0.000000   0.000000   0.000000   0.000000
              25         26         27         28         29         30
     1  C    0.000000   0.000000   0.000000   0.000000   0.000000   0.000000
     2  C    0.000000   0.000000   0.000000   0.000000   0.000000   0.000000
     3  C    0.000000   0.000000   0.000000   0.000000   0.000000   0.000000
     4  C    0.000000   0.000000   0.000000   0.000000   0.000000   0.000000
     5  C    0.000000   0.000000   0.000000   0.000000   0.000000   0.000000
     6  C    0.000000   0.000000   0.000000   0.000000   0.000000   0.000000
     7  H    0.000000   0.000000   0.000000   0.000000   0.000000   0.000000
     8  H    0.000000   0.000000   0.000000   0.000000   0.000000   0.000000
     9  H    0.000000   0.000000   0.000000   0.000000   0.000000   0.000000
    10  H    0.000000   0.000000   0.000000   0.000000   0.000000   0.000000
    11  C    0.000000   0.000000   0.000000   0.000000   0.000000   0.000000
    12  C    0.000000   0.000000   0.000000   0.000000   0.000000   0.000000
    13  C    0.000000   0.000000   0.000000   0.000000   0.000000   0.000000
    14  H    0.000000   0.000000   0.000000   0.000000   0.000000   0.000000
    15  C    0.000000   0.000000   0.000000   0.000000   0.000000   0.000000
    16  H    0.000000   0.000000   0.000000   0.000000   0.000000   0.000000
    17  O    0.000000   0.000000   0.000000   0.000000   0.000000   0.000000
    18  Cl   0.000000   0.000000   0.000000   0.000000   0.000000   0.000000
    19  C    0.000000   0.000000   0.000000   0.000000   0.000000   0.000000
    20  C    0.000000   0.000000   0.000000   0.000000   0.000000   0.000000
    21  H    0.000000   0.000000   0.000000   0.000000   0.000000   0.000000
    22  C    0.000000   0.000000   0.000000   0.000000   0.000000   0.000000
    23  H    0.000000   0.000000   0.000000   0.000000   0.000000   0.000000
    24  H    0.000000   0.000000   0.000000   0.000000   0.000000   0.000000
    25  H    0.820966   0.000000   0.000000   0.000000   0.000000   0.000000
    26  C    0.000000   4.567883   0.000000   0.000000   0.000000   0.000000
    27  H    0.000000   0.000000   0.823750   0.000000   0.000000   0.000000
    28  H    0.000000   0.000000   0.000000   0.824763   0.000000   0.000000
    29  H    0.000000   0.000000   0.000000   0.000000   0.823728   0.000000
    30  C    0.000000   0.000000   0.000000   0.000000   0.000000   4.157406
    31  H    0.000000   0.000000   0.000000   0.000000   0.000000   0.000000
    32  H    0.000000   0.000000   0.000000   0.000000   0.000000   0.000000
              31         32
     1  C    0.000000   0.000000
     2  C    0.000000   0.000000
     3  C    0.000000   0.000000
     4  C    0.000000   0.000000
     5  C    0.000000   0.000000
     6  C    0.000000   0.000000
     7  H    0.000000   0.000000
     8  H    0.000000   0.000000
     9  H    0.000000   0.000000
    10  H    0.000000   0.000000
    11  C    0.000000   0.000000
    12  C    0.000000   0.000000
    13  C    0.000000   0.000000
    14  H    0.000000   0.000000
    15  C    0.000000   0.000000
    16  H    0.000000   0.000000
    17  O    0.000000   0.000000
    18  Cl   0.000000   0.000000
    19  C    0.000000   0.000000
    20  C    0.000000   0.000000
    21  H    0.000000   0.000000
    22  C    0.000000   0.000000
    23  H    0.000000   0.000000
    24  H    0.000000   0.000000
    25  H    0.000000   0.000000
    26  C    0.000000   0.000000
    27  H    0.000000   0.000000
    28  H    0.000000   0.000000
    29  H    0.000000   0.000000
    30  C    0.000000   0.000000
    31  H    0.855864   0.000000
    32  H    0.000000   0.851197
 Mulliken charges:
               1
     1  C   -0.109922
     2  C   -0.180360
     3  C    0.037015
     4  C   -0.100960
     5  C   -0.103041
     6  C   -0.171647
     7  H    0.153131
     8  H    0.168548
     9  H    0.167651
    10  H    0.157918
    11  C    0.298776
    12  C   -0.029330
    13  C   -0.256058
    14  H    0.188893
    15  C   -0.131482
    16  H    0.170838
    17  O   -0.503223
    18  Cl  -0.098584
    19  C    0.475771
    20  C   -0.370421
    21  H    0.166522
    22  C   -0.556058
    23  H    0.175147
    24  H    0.176435
    25  H    0.179034
    26  C   -0.567883
    27  H    0.176250
    28  H    0.175237
    29  H    0.176272
    30  C   -0.157406
    31  H    0.144136
    32  H    0.148803
 Sum of Mulliken charges =   0.00000
 Mulliken charges with hydrogens summed into heavy atoms:
               1
     1  C    0.043209
     2  C   -0.011812
     3  C    0.037015
     4  C   -0.100960
     5  C    0.064610
     6  C   -0.013730
    11  C    0.298776
    12  C   -0.029330
    13  C   -0.067165
    15  C    0.039355
    17  O   -0.503223
    18  Cl  -0.098584
    19  C    0.475771
    20  C   -0.203900
    22  C   -0.025442
    26  C   -0.040124
    30  C    0.135533
 Charge=              0.0000 electrons
 Dipole moment (field-independent basis, Debye):
    X=              2.0150    Y=              0.3690    Z=              1.5944  Tot=              2.5959
 N-N= 6.599583222237D+02 E-N=-1.206739910725D+03  KE=-5.683133918254D+01
 PrsmSu:  requested number of processors reduced to:   1 ShMem   1 Linda.
 D1PCM: C-PCM CHGder 1st derivatives, ID1Alg=3 FixD1E=F DoIter=F DoCFld=F I1PDM=0.
 Calling FoFJK, ICntrl=      2127 FMM=F ISym2X=0 I1Cent= 0 IOpClX= 0 NMat=1 NMatS=1 NMatT=0.
 ***** Axes restored to original set *****
 -------------------------------------------------------------------
 Center     Atomic                   Forces (Hartrees/Bohr)
 Number     Number              X              Y              Z
 -------------------------------------------------------------------
      1        6           0.000001797   -0.000004132   -0.000000280
      2        6           0.000003902    0.000004077   -0.000009250
      3        6          -0.000006807   -0.000011858    0.000006837
      4        6          -0.000002220    0.000010736   -0.000002554
      5        6           0.000000864   -0.000005707   -0.000003339
      6        6           0.000000117   -0.000001995    0.000003973
      7        1           0.000000540   -0.000001284    0.000000417
      8        1          -0.000001869   -0.000002769   -0.000000121
      9        1           0.000004845    0.000000463    0.000003949
     10        1           0.000001893   -0.000001934    0.000002074
     11        6           0.000012724   -0.000016058    0.000018466
     12        6           0.000009050    0.000008227   -0.000011487
     13        6           0.019746983    0.007856648    0.029815059
     14        1          -0.000000697   -0.000003428   -0.000001414
     15        6          -0.000012253   -0.000010706    0.000001939
     16        1           0.000003907    0.000003277   -0.000005953
     17        8           0.000007997    0.000008722    0.000004128
     18       17          -0.000004236   -0.000003820   -0.000005478
     19        6          -0.000003709    0.000003914   -0.000007619
     20        6           0.000023678   -0.000000918    0.000001381
     21        1          -0.000004615   -0.000000271   -0.000002942
     22        6          -0.000001049   -0.000011564    0.000008628
     23        1          -0.000002644   -0.000000090    0.000004690
     24        1          -0.000001074    0.000005576   -0.000002641
     25        1           0.000004282    0.000009391    0.000009291
     26        6          -0.000007347   -0.000003580   -0.000009785
     27        1           0.000001211    0.000003760    0.000005482
     28        1          -0.000000604    0.000005750    0.000011175
     29        1           0.000000314    0.000003716    0.000004315
     30        6          -0.019759730   -0.007848123   -0.029824253
     31        1          -0.000011841   -0.000003944   -0.000013341
     32        1          -0.000003412    0.000007925   -0.000001345
 -------------------------------------------------------------------
 Cartesian Forces:  Max     0.029824253 RMS     0.005285730

 GradGradGradGradGradGradGradGradGradGradGradGradGradGradGradGradGradGrad
 Berny optimization.
 FormGI is forming the generalized inverse of G from B-inverse, IUseBI=4.
 Internal  Forces:  Max     0.033786764 RMS     0.002572634
 Search for a saddle point.
 Step number   1 out of a maximum of  192
 All quantities printed in internal units (Hartrees-Bohrs-Radians)
 Second derivative matrix not updated -- first step.
 ITU=  0
 LST/QST climbing along tangent vector
     Eigenvalues ---    0.00498   0.00519   0.01297   0.01665   0.01673
     Eigenvalues ---    0.01748   0.01813   0.01921   0.01972   0.01984
     Eigenvalues ---    0.01998   0.02044   0.02088   0.02112   0.02151
     Eigenvalues ---    0.02171   0.02244   0.02996   0.03208   0.03857
     Eigenvalues ---    0.04735   0.05441   0.05488   0.05544   0.05565
     Eigenvalues ---    0.05735   0.05998   0.06525   0.07258   0.08016
     Eigenvalues ---    0.08128   0.08937   0.09156   0.10133   0.11465
     Eigenvalues ---    0.14736   0.15558   0.15995   0.15999   0.16000
     Eigenvalues ---    0.16000   0.16000   0.16000   0.16000   0.16000
     Eigenvalues ---    0.16000   0.16000   0.16000   0.17182   0.17941
     Eigenvalues ---    0.20638   0.22000   0.22564   0.23410   0.24177
     Eigenvalues ---    0.24503   0.24989   0.24998   0.30341   0.30440
     Eigenvalues ---    0.32530   0.32622   0.33860   0.33943   0.33963
     Eigenvalues ---    0.33973   0.34012   0.34017   0.34087   0.34489
     Eigenvalues ---    0.34645   0.34733   0.34744   0.34763   0.34831
     Eigenvalues ---    0.34863   0.35143   0.35929   0.37001   0.39223
     Eigenvalues ---    0.39448   0.39724   0.41559   0.42064   0.42427
     Eigenvalues ---    0.47745   0.48987   0.49038   0.50710   0.53660
     Eigenvalues --- 1000.000001000.000001000.000001000.000001000.00000
     Eigenvalues --- 1000.000001000.000001000.000001000.000001000.00000
     Eigenvalues --- 1000.000001000.000001000.000001000.000001000.00000
     Eigenvalues --- 1000.000001000.000001000.000001000.000001000.00000
     Eigenvalues --- 1000.000001000.000001000.000001000.000001000.00000
     Eigenvalues --- 1000.000001000.000001000.000001000.000001000.00000
     Eigenvalues --- 1000.000001000.000001000.000001000.000001000.00000
     Eigenvalues --- 1000.000001000.000001000.000001000.000001000.00000
     Eigenvalues --- 1000.000001000.000001000.000001000.000001000.00000
     Eigenvalues --- 1000.000001000.000001000.000001000.000001000.00000
     Eigenvalues --- 1000.000001000.000001000.000001000.000001000.00000
     Eigenvalues --- 1000.000001000.000001000.000001000.000001000.00000
     Eigenvalues --- 1000.000001000.000001000.000001000.000001000.00000
     Eigenvalues --- 1000.000001000.000001000.000001000.000001000.00000
     Eigenvalues --- 1000.000001000.000001000.000001000.000001000.00000
     Eigenvalues --- 1000.000001000.000001000.000001000.000001000.00000
     Eigenvalues --- 1000.000001000.000001000.000001000.000001000.00000
     Eigenvalues --- 1000.000001000.000001000.000001000.000001000.00000
     Eigenvalues --- 1000.000001000.000001000.000001000.000001000.00000
     Eigenvalues --- 1000.000001000.00000
 Eigenvectors required to have negative eigenvalues:
                          D80       D79       D78       D86       D85
   1                    0.33323   0.33322   0.33322   0.33306   0.33305
                          D84       D83       D82       D81       D74
   1                    0.33305   0.33230   0.33229   0.33229   0.01786
 QST in optimization variable space.
 Eigenvectors 1 and  33 swapped, overlap=  1.0000
                        Tangent   TS vect  // Eig F  Eigenval
   1         R1         0.00452  -0.00452   0.02003   0.09156
   2         R2        -0.00286   0.00286  -0.00005   0.00519
   3         R3         0.00011  -0.00011   0.00196   0.01297
   4         R4        -0.00410   0.00410   0.00024   0.01665
   5         R5         0.00015  -0.00015  -0.00008   0.01673
   6         R6         0.00370  -0.00370  -0.00001   0.01748
   7         R7         0.01601  -0.01601  -0.00009   0.01813
   8         R8        -0.00443   0.00443   0.00005   0.01921
   9         R9         0.00017  -0.00017   0.00010   0.01972
  10         R10        0.00317  -0.00317  -0.00010   0.01984
  11         R11        0.00023  -0.00023   0.00059   0.01998
  12         R12        0.00024  -0.00024   0.00062   0.02044
  13         R13        0.01408  -0.01408   0.00000   0.02088
  14         R14       -0.02514   0.02514   0.00001   0.02112
  15         R15       -0.00194   0.00194   0.00004   0.02151
  16         R16        0.00067  -0.00067  -0.00006   0.02171
  17         R17        0.00813  -0.00813   0.00000   0.02244
  18         R18        0.01022  -0.01022   0.00180   0.02996
  19         R19       -0.54664   0.54664   0.00296   0.03208
  20         R20        0.00012  -0.00012  -0.00166   0.03857
  21         R21        0.35098  -0.35098  -0.00018   0.04735
  22         R22       -0.03212   0.03212  -0.00020   0.05441
  23         R23       -0.00418   0.00418   0.00000   0.05488
  24         R24       -0.00671   0.00671   0.00024   0.05544
  25         R25       -0.00164   0.00164   0.00015   0.05565
  26         R26        0.02990  -0.02990   0.00540   0.05735
  27         R27        0.00014  -0.00014   0.00724   0.05998
  28         R28       -0.00017   0.00017  -0.00012   0.06525
  29         R29        0.00003  -0.00003   0.00586   0.07258
  30         R30        0.00022  -0.00022   0.00052   0.08016
  31         R31        0.00073  -0.00073   0.00360   0.08128
  32         R32        0.00006  -0.00006   0.00218   0.08937
  33         R33        0.00553  -0.00553   0.00001   0.00498
  34         R34        0.00522  -0.00522   0.00233   0.10133
  35         A1         0.00081  -0.00081  -0.00314   0.11465
  36         A2        -0.00187   0.00187   0.00137   0.14736
  37         A3         0.00107  -0.00107  -0.00043   0.15558
  38         A4        -0.00016   0.00016  -0.00012   0.15995
  39         A5        -0.00216   0.00216   0.00013   0.15999
  40         A6         0.00231  -0.00231   0.00000   0.16000
  41         A7        -0.00194   0.00194   0.00000   0.16000
  42         A8        -0.00205   0.00205   0.00000   0.16000
  43         A9         0.00398  -0.00398   0.00000   0.16000
  44         A10        0.00317  -0.00317   0.00000   0.16000
  45         A11       -0.00553   0.00553   0.00000   0.16000
  46         A12        0.00232  -0.00232   0.00000   0.16000
  47         A13       -0.00169   0.00169   0.00000   0.16000
  48         A14        0.00183  -0.00183   0.00000   0.16000
  49         A15       -0.00014   0.00014  -0.00041   0.17182
  50         A16       -0.00020   0.00020   0.00086   0.17941
  51         A17        0.00149  -0.00149  -0.00258   0.20638
  52         A18       -0.00130   0.00130   0.00001   0.22000
  53         A19        0.00037  -0.00037   0.00013   0.22564
  54         A20        0.07386  -0.07386   0.00549   0.23410
  55         A21       -0.07547   0.07547   0.00044   0.24177
  56         A22        0.00454  -0.00454   0.00007   0.24503
  57         A23       -0.00414   0.00414  -0.00011   0.24989
  58         A24       -0.00041   0.00041   0.00004   0.24998
  59         A25       -0.05864   0.05864  -0.00004   0.30341
  60         A26        0.00615  -0.00615  -0.00002   0.30440
  61         A27        0.09500  -0.09500  -0.00014   0.32530
  62         A28       -0.00197   0.00197   0.00000   0.32622
  63         A29        0.11242  -0.11242   0.00001   0.33860
  64         A30       -0.09353   0.09353  -0.00001   0.33943
  65         A31       -0.01075   0.01075   0.00006   0.33963
  66         A32        0.00956  -0.00956   0.00000   0.33973
  67         A33        0.00112  -0.00112   0.00000   0.34012
  68         A34       -0.12975   0.12975   0.00000   0.34017
  69         A35       -0.09212   0.09212   0.00000   0.34087
  70         A36        0.05875  -0.05875   0.00000   0.34489
  71         A37       -0.05254   0.05254   0.00000   0.34645
  72         A38        0.03400  -0.03400   0.00000   0.34733
  73         A39        0.04863  -0.04863   0.00004   0.34744
  74         A40       -0.01573   0.01573   0.00000   0.34763
  75         A41        0.03981  -0.03981   0.00005   0.34831
  76         A42       -0.06736   0.06736   0.00000   0.34863
  77         A43        0.01669  -0.01669  -0.00001   0.35143
  78         A44       -0.00081   0.00081   0.00001   0.35929
  79         A45       -0.00146   0.00146  -0.00004   0.37001
  80         A46        0.00032  -0.00032   0.00011   0.39223
  81         A47        0.00132  -0.00132   0.00008   0.39448
  82         A48        0.00111  -0.00111  -0.00001   0.39724
  83         A49       -0.00032   0.00032   0.00002   0.41559
  84         A50        0.00518  -0.00518  -0.00008   0.42064
  85         A51       -0.00149   0.00149   0.00000   0.42427
  86         A52        0.00082  -0.00082   0.00001   0.47745
  87         A53       -0.00214   0.00214   0.00041   0.48987
  88         A54       -0.00075   0.00075  -0.00004   0.49038
  89         A55       -0.00198   0.00198  -0.00004   0.50710
  90         A56        0.12709  -0.12709   0.00008   0.53660
  91         A57       -0.06745   0.06745   0.000001000.00000
  92         A58        0.05394  -0.05394   0.000001000.00000
  93         A59        0.00450  -0.00450   0.000001000.00000
  94         A60       -0.05167   0.05167   0.000001000.00000
  95         A61       -0.00590   0.00590   0.000001000.00000
  96         D1         0.00043  -0.00043   0.000001000.00000
  97         D2         0.00055  -0.00055   0.000001000.00000
  98         D3         0.00015  -0.00015   0.000001000.00000
  99         D4         0.00027  -0.00027   0.000001000.00000
 100         D5        -0.00007   0.00007   0.000001000.00000
 101         D6        -0.00051   0.00051   0.000001000.00000
 102         D7         0.00021  -0.00021   0.000001000.00000
 103         D8        -0.00023   0.00023   0.000001000.00000
 104         D9         0.00013  -0.00013   0.000001000.00000
 105         D10        0.00017  -0.00017   0.000001000.00000
 106         D11        0.00000   0.00000   0.000001000.00000
 107         D12        0.00004  -0.00004   0.000001000.00000
 108         D13       -0.00104   0.00104   0.000001000.00000
 109         D14        0.00209  -0.00209   0.000001000.00000
 110         D15       -0.00109   0.00109   0.000001000.00000
 111         D16        0.00204  -0.00204   0.000001000.00000
 112         D17        0.00064  -0.00064   0.000001000.00000
 113         D18        0.00136  -0.00136   0.000001000.00000
 114         D19        0.00069  -0.00069   0.000001000.00000
 115         D20        0.00141  -0.00141   0.000001000.00000
 116         D21        0.00141  -0.00141   0.000001000.00000
 117         D22        0.00162  -0.00162   0.000001000.00000
 118         D23       -0.00187   0.00187   0.000001000.00000
 119         D24       -0.00166   0.00166   0.000001000.00000
 120         D25       -0.01303   0.01303   0.000001000.00000
 121         D26        0.00545  -0.00545   0.000001000.00000
 122         D27       -0.00985   0.00985   0.000001000.00000
 123         D28        0.00863  -0.00863   0.000001000.00000
 124         D29       -0.00085   0.00085   0.000001000.00000
 125         D30       -0.00040   0.00040   0.000001000.00000
 126         D31       -0.00107   0.00107   0.000001000.00000
 127         D32       -0.00062   0.00062   0.000001000.00000
 128         D33       -0.10935   0.10935   0.000001000.00000
 129         D34        0.02065  -0.02065   0.000001000.00000
 130         D35        0.06987  -0.06987   0.000001000.00000
 131         D36       -0.11975   0.11975   0.000001000.00000
 132         D37        0.01025  -0.01025   0.000001000.00000
 133         D38        0.05947  -0.05947   0.000001000.00000
 134         D39       -0.13240   0.13240   0.000001000.00000
 135         D40       -0.11858   0.11858   0.000001000.00000
 136         D41        0.00646  -0.00646   0.000001000.00000
 137         D42        0.00264  -0.00264   0.000001000.00000
 138         D43        0.00571  -0.00571   0.000001000.00000
 139         D44        0.00188  -0.00188   0.000001000.00000
 140         D45       -0.01690   0.01690   0.000001000.00000
 141         D46       -0.01332   0.01332   0.000001000.00000
 142         D47        0.12334  -0.12334   0.000001000.00000
 143         D48        0.12691  -0.12691   0.000001000.00000
 144         D49        0.04247  -0.04247   0.000001000.00000
 145         D50        0.04604  -0.04604   0.000001000.00000
 146         D51        0.00870  -0.00870   0.000001000.00000
 147         D52       -0.01596   0.01596   0.000001000.00000
 148         D53       -0.01351   0.01351   0.000001000.00000
 149         D54       -0.03264   0.03264   0.000001000.00000
 150         D55       -0.05731   0.05731   0.000001000.00000
 151         D56       -0.05485   0.05485   0.000001000.00000
 152         D57       -0.00952   0.00952   0.000001000.00000
 153         D58       -0.03419   0.03419   0.000001000.00000
 154         D59       -0.03173   0.03173   0.000001000.00000
 155         D60        0.22954  -0.22954   0.000001000.00000
 156         D61        0.25824  -0.25824   0.000001000.00000
 157         D62        0.24665  -0.24665   0.000001000.00000
 158         D63       -0.09524   0.09524   0.000001000.00000
 159         D64       -0.05142   0.05142   0.000001000.00000
 160         D65       -0.12662   0.12662   0.000001000.00000
 161         D66       -0.08279   0.08279   0.000001000.00000
 162         D67       -0.19559   0.19559   0.000001000.00000
 163         D68       -0.15176   0.15176   0.000001000.00000
 164         D69       -0.01180   0.01180   0.000001000.00000
 165         D70       -0.01170   0.01170   0.000001000.00000
 166         D71       -0.01287   0.01287   0.000001000.00000
 167         D72       -0.07251   0.07251   0.000001000.00000
 168         D73       -0.07241   0.07241   0.000001000.00000
 169         D74       -0.07358   0.07358   0.000001000.00000
 170         D75        0.02290  -0.02290   0.000001000.00000
 171         D76        0.02300  -0.02300   0.000001000.00000
 172         D77        0.02182  -0.02182   0.000001000.00000
 173         D78       -0.04789   0.04789   0.000001000.00000
 174         D79       -0.04814   0.04814   0.000001000.00000
 175         D80       -0.05112   0.05112   0.000001000.00000
 176         D81        0.07480  -0.07480   0.000001000.00000
 177         D82        0.07455  -0.07455   0.000001000.00000
 178         D83        0.07157  -0.07157   0.000001000.00000
 179         D84       -0.01441   0.01441   0.000001000.00000
 180         D85       -0.01466   0.01466   0.000001000.00000
 181         D86       -0.01764   0.01764   0.000001000.00000
 182         D87        0.01407  -0.01407   0.000001000.00000
 183         D88        0.01913  -0.01913   0.000001000.00000
 184         D89       -0.12429   0.12429   0.000001000.00000
 185         D90        0.05725  -0.05725   0.000001000.00000
 186         D91        0.06231  -0.06231   0.000001000.00000
 187         D92       -0.08111   0.08111   0.000001000.00000
 RFO step:  Lambda0=9.575237001D-02 Lambda=-2.99013009D-03.
 Linear search not attempted -- option 19 set.
 Maximum step size (   0.300) exceeded in Quadratic search.
    -- Step size scaled by   0.088
 Iteration  1 RMS(Cart)=  0.07798305 RMS(Int)=  0.00219670
 Iteration  2 RMS(Cart)=  0.00473266 RMS(Int)=  0.00052705
 Iteration  3 RMS(Cart)=  0.00000617 RMS(Int)=  0.00052704
 Iteration  4 RMS(Cart)=  0.00000001 RMS(Int)=  0.00052704
 Variable       Old X    -DE/DX   Delta X   Delta X   Delta X     New X
                                 (Linear)    (Quad)   (Total)
    R1        2.60481   0.00001   0.00000   0.00191   0.00194   2.60675
    R2        2.68193   0.00001   0.00000  -0.00120  -0.00117   2.68076
    R3        2.06110   0.00000   0.00000   0.00005   0.00005   2.06114
    R4        2.69003   0.00000   0.00000  -0.00173  -0.00173   2.68830
    R5        2.06062   0.00000   0.00000   0.00006   0.00006   2.06068
    R6        2.67910   0.00008   0.00000   0.00158   0.00174   2.68084
    R7        2.72101   0.00013   0.00000   0.00679   0.00713   2.72814
    R8        2.68916  -0.00002   0.00000  -0.00187  -0.00190   2.68726
    R9        2.73408  -0.00004   0.00000   0.00005  -0.00011   2.73397
   R10        2.60107   0.00000   0.00000   0.00134   0.00134   2.60241
   R11        2.06512   0.00000   0.00000   0.00010   0.00010   2.06522
   R12        2.05898   0.00000   0.00000   0.00010   0.00010   2.05908
   R13        2.65437  -0.00073   0.00000   0.00581   0.00511   2.65947
   R14        2.55648   0.00036   0.00000  -0.01053  -0.01045   2.54603
   R15        2.57803   0.00004   0.00000  -0.00080  -0.00064   2.57738
   R16        3.26720   0.00000   0.00000   0.00028   0.00028   3.26748
   R17        2.07390   0.00000   0.00000   0.00343   0.00343   2.07732
   R18        2.72205  -0.00010   0.00000   0.00428   0.00410   2.72615
[...]
     31          1           0        1.302392   -3.010218    0.862356
     32          1           0        0.884437   -1.379608    1.539938
 ---------------------------------------------------------------------
 Rotational constants (GHZ):      0.6926351      0.3372797      0.2485954

 **********************************************************************

            Population analysis using the SCF density.

 **********************************************************************

 Orbital symmetries:
       Occupied  (A) (A) (A) (A) (A) (A) (A) (A) (A) (A) (A) (A)
                 (A) (A) (A) (A) (A) (A) (A) (A) (A) (A) (A) (A)
                 (A) (A) (A) (A) (A) (A) (A) (A) (A) (A) (A) (A)
                 (A) (A) (A) (A) (A) (A) (A) (A)
       Virtual   (A) (A) (A) (A) (A) (A) (A) (A) (A) (A) (A) (A)
                 (A) (A) (A) (A) (A) (A) (A) (A) (A) (A) (A) (A)
                 (A) (A) (A) (A) (A) (A) (A) (A) (A) (A) (A) (A)
                 (A) (A) (A) (A) (A) (A) (A) (A)
 The electronic state is 1-A.
 Alpha  occ. eigenvalues --   -1.13263  -1.10868  -1.07501  -1.06105  -1.00168
 Alpha  occ. eigenvalues --   -0.97800  -0.96008  -0.94372  -0.91183  -0.89021
 Alpha  occ. eigenvalues --   -0.81978  -0.80749  -0.79845  -0.75551  -0.69015
 Alpha  occ. eigenvalues --   -0.65917  -0.64959  -0.62604  -0.60180  -0.59689
 Alpha  occ. eigenvalues --   -0.56934  -0.56636  -0.56000  -0.54181  -0.53922
 Alpha  occ. eigenvalues --   -0.52718  -0.51943  -0.50425  -0.50136  -0.49298
 Alpha  occ. eigenvalues --   -0.48630  -0.48161  -0.46951  -0.46266  -0.46251
 Alpha  occ. eigenvalues --   -0.45422  -0.44409  -0.41995  -0.40822  -0.39095
 Alpha  occ. eigenvalues --   -0.38318  -0.37205  -0.34009  -0.31144
 Alpha virt. eigenvalues --   -0.02854  -0.02157   0.01071   0.02421   0.02987
 Alpha virt. eigenvalues --    0.04131   0.07739   0.09851   0.12427   0.13023
 Alpha virt. eigenvalues --    0.13955   0.14118   0.14579   0.15209   0.15536
 Alpha virt. eigenvalues --    0.16276   0.16361   0.16900   0.17256   0.17835
 Alpha virt. eigenvalues --    0.18529   0.18882   0.19184   0.19586   0.19876
 Alpha virt. eigenvalues --    0.20028   0.20334   0.20465   0.20719   0.21002
 Alpha virt. eigenvalues --    0.21147   0.21204   0.21814   0.22098   0.22187
 Alpha virt. eigenvalues --    0.22469   0.23161   0.24070   0.24381   3.24455
 Alpha virt. eigenvalues --    3.24488   3.24600   3.25738   3.25791
          Condensed to atoms (all electrons):
               1          2          3          4          5          6
     1  C    4.089360   0.000000   0.000000   0.000000   0.000000   0.000000
     2  C    0.000000   4.203630   0.000000   0.000000   0.000000   0.000000
     3  C    0.000000   0.000000   3.919804   0.000000   0.000000   0.000000
     4  C    0.000000   0.000000   0.000000   4.173542   0.000000   0.000000
     5  C    0.000000   0.000000   0.000000   0.000000   4.073968   0.000000
     6  C    0.000000   0.000000   0.000000   0.000000   0.000000   4.194366
     7  H    0.000000   0.000000   0.000000   0.000000   0.000000   0.000000
     8  H    0.000000   0.000000   0.000000   0.000000   0.000000   0.000000
     9  H    0.000000   0.000000   0.000000   0.000000   0.000000   0.000000
    10  H    0.000000   0.000000   0.000000   0.000000   0.000000   0.000000
    11  C    0.000000   0.000000   0.000000   0.000000   0.000000   0.000000
    12  C    0.000000   0.000000   0.000000   0.000000   0.000000   0.000000
    13  C    0.000000   0.000000   0.000000   0.000000   0.000000   0.000000
    14  H    0.000000   0.000000   0.000000   0.000000   0.000000   0.000000
    15  C    0.000000   0.000000   0.000000   0.000000   0.000000   0.000000
    16  H    0.000000   0.000000   0.000000   0.000000   0.000000   0.000000
    17  O    0.000000   0.000000   0.000000   0.000000   0.000000   0.000000
    18  Cl   0.000000   0.000000   0.000000   0.000000   0.000000   0.000000
    19  C    0.000000   0.000000   0.000000   0.000000   0.000000   0.000000
    20  C    0.000000   0.000000   0.000000   0.000000   0.000000   0.000000
    21  H    0.000000   0.000000   0.000000   0.000000   0.000000   0.000000
    22  C    0.000000   0.000000   0.000000   0.000000   0.000000   0.000000
    23  H    0.000000   0.000000   0.000000   0.000000   0.000000   0.000000
    24  H    0.000000   0.000000   0.000000   0.000000   0.000000   0.000000
    25  H    0.000000   0.000000   0.000000   0.000000   0.000000   0.000000
    26  C    0.000000   0.000000   0.000000   0.000000   0.000000   0.000000
    27  H    0.000000   0.000000   0.000000   0.000000   0.000000   0.000000
    28  H    0.000000   0.000000   0.000000   0.000000   0.000000   0.000000
    29  H    0.000000   0.000000   0.000000   0.000000   0.000000   0.000000
    30  C    0.000000   0.000000   0.000000   0.000000   0.000000   0.000000
    31  H    0.000000   0.000000   0.000000   0.000000   0.000000   0.000000
    32  H    0.000000   0.000000   0.000000   0.000000   0.000000   0.000000
               7          8          9         10         11         12
     1  C    0.000000   0.000000   0.000000   0.000000   0.000000   0.000000
     2  C    0.000000   0.000000   0.000000   0.000000   0.000000   0.000000
     3  C    0.000000   0.000000   0.000000   0.000000   0.000000   0.000000
     4  C    0.000000   0.000000   0.000000   0.000000   0.000000   0.000000
     5  C    0.000000   0.000000   0.000000   0.000000   0.000000   0.000000
     6  C    0.000000   0.000000   0.000000   0.000000   0.000000   0.000000
     7  H    0.848760   0.000000   0.000000   0.000000   0.000000   0.000000
     8  H    0.000000   0.829654   0.000000   0.000000   0.000000   0.000000
     9  H    0.000000   0.000000   0.835862   0.000000   0.000000   0.000000
    10  H    0.000000   0.000000   0.000000   0.840838   0.000000   0.000000
    11  C    0.000000   0.000000   0.000000   0.000000   3.567247   0.000000
    12  C    0.000000   0.000000   0.000000   0.000000   0.000000   4.066596
    13  C    0.000000   0.000000   0.000000   0.000000   0.000000   0.000000
    14  H    0.000000   0.000000   0.000000   0.000000   0.000000   0.000000
    15  C    0.000000   0.000000   0.000000   0.000000   0.000000   0.000000
    16  H    0.000000   0.000000   0.000000   0.000000   0.000000   0.000000
    17  O    0.000000   0.000000   0.000000   0.000000   0.000000   0.000000
    18  Cl   0.000000   0.000000   0.000000   0.000000   0.000000   0.000000
    19  C    0.000000   0.000000   0.000000   0.000000   0.000000   0.000000
    20  C    0.000000   0.000000   0.000000   0.000000   0.000000   0.000000
    21  H    0.000000   0.000000   0.000000   0.000000   0.000000   0.000000
    22  C    0.000000   0.000000   0.000000   0.000000   0.000000   0.000000
    23  H    0.000000   0.000000   0.000000   0.000000   0.000000   0.000000
    24  H    0.000000   0.000000   0.000000   0.000000   0.000000   0.000000
    25  H    0.000000   0.000000   0.000000   0.000000   0.000000   0.000000
    26  C    0.000000   0.000000   0.000000   0.000000   0.000000   0.000000
    27  H    0.000000   0.000000   0.000000   0.000000   0.000000   0.000000
    28  H    0.000000   0.000000   0.000000   0.000000   0.000000   0.000000
    29  H    0.000000   0.000000   0.000000   0.000000   0.000000   0.000000
    30  C    0.000000   0.000000   0.000000   0.000000   0.000000   0.000000
    31  H    0.000000   0.000000   0.000000   0.000000   0.000000   0.000000
    32  H    0.000000   0.000000   0.000000   0.000000   0.000000   0.000000
              13         14         15         16         17         18
     1  C    0.000000   0.000000   0.000000   0.000000   0.000000   0.000000
     2  C    0.000000   0.000000   0.000000   0.000000   0.000000   0.000000
     3  C    0.000000   0.000000   0.000000   0.000000   0.000000   0.000000
     4  C    0.000000   0.000000   0.000000   0.000000   0.000000   0.000000
     5  C    0.000000   0.000000   0.000000   0.000000   0.000000   0.000000
     6  C    0.000000   0.000000   0.000000   0.000000   0.000000   0.000000
     7  H    0.000000   0.000000   0.000000   0.000000   0.000000   0.000000
     8  H    0.000000   0.000000   0.000000   0.000000   0.000000   0.000000
     9  H    0.000000   0.000000   0.000000   0.000000   0.000000   0.000000
    10  H    0.000000   0.000000   0.000000   0.000000   0.000000   0.000000
    11  C    0.000000   0.000000   0.000000   0.000000   0.000000   0.000000
    12  C    0.000000   0.000000   0.000000   0.000000   0.000000   0.000000
    13  C    4.359857   0.000000   0.000000   0.000000   0.000000   0.000000
    14  H    0.000000   0.809224   0.000000   0.000000   0.000000   0.000000
    15  C    0.000000   0.000000   4.088105   0.000000   0.000000   0.000000
    16  H    0.000000   0.000000   0.000000   0.834384   0.000000   0.000000
    17  O    0.000000   0.000000   0.000000   0.000000   6.572876   0.000000
    18  Cl   0.000000   0.000000   0.000000   0.000000   0.000000   7.101192
    19  C    0.000000   0.000000   0.000000   0.000000   0.000000   0.000000
    20  C    0.000000   0.000000   0.000000   0.000000   0.000000   0.000000
    21  H    0.000000   0.000000   0.000000   0.000000   0.000000   0.000000
    22  C    0.000000   0.000000   0.000000   0.000000   0.000000   0.000000
    23  H    0.000000   0.000000   0.000000   0.000000   0.000000   0.000000
    24  H    0.000000   0.000000   0.000000   0.000000   0.000000   0.000000
    25  H    0.000000   0.000000   0.000000   0.000000   0.000000   0.000000
    26  C    0.000000   0.000000   0.000000   0.000000   0.000000   0.000000
    27  H    0.000000   0.000000   0.000000   0.000000   0.000000   0.000000
    28  H    0.000000   0.000000   0.000000   0.000000   0.000000   0.000000
    29  H    0.000000   0.000000   0.000000   0.000000   0.000000   0.000000
    30  C    0.000000   0.000000   0.000000   0.000000   0.000000   0.000000
    31  H    0.000000   0.000000   0.000000   0.000000   0.000000   0.000000
    32  H    0.000000   0.000000   0.000000   0.000000   0.000000   0.000000
              19         20         21         22         23         24
     1  C    0.000000   0.000000   0.000000   0.000000   0.000000   0.000000
     2  C    0.000000   0.000000   0.000000   0.000000   0.000000   0.000000
     3  C    0.000000   0.000000   0.000000   0.000000   0.000000   0.000000
     4  C    0.000000   0.000000   0.000000   0.000000   0.000000   0.000000
     5  C    0.000000   0.000000   0.000000   0.000000   0.000000   0.000000
     6  C    0.000000   0.000000   0.000000   0.000000   0.000000   0.000000
     7  H    0.000000   0.000000   0.000000   0.000000   0.000000   0.000000
     8  H    0.000000   0.000000   0.000000   0.000000   0.000000   0.000000
     9  H    0.000000   0.000000   0.000000   0.000000   0.000000   0.000000
    10  H    0.000000   0.000000   0.000000   0.000000   0.000000   0.000000
    11  C    0.000000   0.000000   0.000000   0.000000   0.000000   0.000000
    12  C    0.000000   0.000000   0.000000   0.000000   0.000000   0.000000
    13  C    0.000000   0.000000   0.000000   0.000000   0.000000   0.000000
    14  H    0.000000   0.000000   0.000000   0.000000   0.000000   0.000000
    15  C    0.000000   0.000000   0.000000   0.000000   0.000000   0.000000
    16  H    0.000000   0.000000   0.000000   0.000000   0.000000   0.000000
    17  O    0.000000   0.000000   0.000000   0.000000   0.000000   0.000000
    18  Cl   0.000000   0.000000   0.000000   0.000000   0.000000   0.000000
    19  C    3.492932   0.000000   0.000000   0.000000   0.000000   0.000000
    20  C    0.000000   4.464440   0.000000   0.000000   0.000000   0.000000
    21  H    0.000000   0.000000   0.823912   0.000000   0.000000   0.000000
    22  C    0.000000   0.000000   0.000000   4.567719   0.000000   0.000000
    23  H    0.000000   0.000000   0.000000   0.000000   0.820821   0.000000
    24  H    0.000000   0.000000   0.000000   0.000000   0.000000   0.806648
    25  H    0.000000   0.000000   0.000000   0.000000   0.000000   0.000000
    26  C    0.000000   0.000000   0.000000   0.000000   0.000000   0.000000
    27  H    0.000000   0.000000   0.000000   0.000000   0.000000   0.000000
    28  H    0.000000   0.000000   0.000000   0.000000   0.000000   0.000000
    29  H    0.000000   0.000000   0.000000   0.000000   0.000000   0.000000
    30  C    0.000000   0.000000   0.000000   0.000000   0.000000   0.000000
    31  H    0.000000   0.000000   0.000000   0.000000   0.000000   0.000000
    32  H    0.000000   0.000000   0.000000   0.000000   0.000000   0.000000
              25         26         27         28         29         30
     1  C    0.000000   0.000000   0.000000   0.000000   0.000000   0.000000
     2  C    0.000000   0.000000   0.000000   0.000000   0.000000   0.000000
     3  C    0.000000   0.000000   0.000000   0.000000   0.000000   0.000000
     4  C    0.000000   0.000000   0.000000   0.000000   0.000000   0.000000
     5  C    0.000000   0.000000   0.000000   0.000000   0.000000   0.000000
     6  C    0.000000   0.000000   0.000000   0.000000   0.000000   0.000000
     7  H    0.000000   0.000000   0.000000   0.000000   0.000000   0.000000
     8  H    0.000000   0.000000   0.000000   0.000000   0.000000   0.000000
     9  H    0.000000   0.000000   0.000000   0.000000   0.000000   0.000000
    10  H    0.000000   0.000000   0.000000   0.000000   0.000000   0.000000
    11  C    0.000000   0.000000   0.000000   0.000000   0.000000   0.000000
    12  C    0.000000   0.000000   0.000000   0.000000   0.000000   0.000000
    13  C    0.000000   0.000000   0.000000   0.000000   0.000000   0.000000
    14  H    0.000000   0.000000   0.000000   0.000000   0.000000   0.000000
    15  C    0.000000   0.000000   0.000000   0.000000   0.000000   0.000000
    16  H    0.000000   0.000000   0.000000   0.000000   0.000000   0.000000
    17  O    0.000000   0.000000   0.000000   0.000000   0.000000   0.000000
    18  Cl   0.000000   0.000000   0.000000   0.000000   0.000000   0.000000
    19  C    0.000000   0.000000   0.000000   0.000000   0.000000   0.000000
    20  C    0.000000   0.000000   0.000000   0.000000   0.000000   0.000000
    21  H    0.000000   0.000000   0.000000   0.000000   0.000000   0.000000
    22  C    0.000000   0.000000   0.000000   0.000000   0.000000   0.000000
    23  H    0.000000   0.000000   0.000000   0.000000   0.000000   0.000000
    24  H    0.000000   0.000000   0.000000   0.000000   0.000000   0.000000
    25  H    0.820321   0.000000   0.000000   0.000000   0.000000   0.000000
    26  C    0.000000   4.572797   0.000000   0.000000   0.000000   0.000000
    27  H    0.000000   0.000000   0.817996   0.000000   0.000000   0.000000
    28  H    0.000000   0.000000   0.000000   0.818347   0.000000   0.000000
    29  H    0.000000   0.000000   0.000000   0.000000   0.814824   0.000000
    30  C    0.000000   0.000000   0.000000   0.000000   0.000000   4.045466
    31  H    0.000000   0.000000   0.000000   0.000000   0.000000   0.000000
    32  H    0.000000   0.000000   0.000000   0.000000   0.000000   0.000000
              31         32
     1  C    0.000000   0.000000
     2  C    0.000000   0.000000
     3  C    0.000000   0.000000
     4  C    0.000000   0.000000
     5  C    0.000000   0.000000
     6  C    0.000000   0.000000
     7  H    0.000000   0.000000
     8  H    0.000000   0.000000
     9  H    0.000000   0.000000
    10  H    0.000000   0.000000
    11  C    0.000000   0.000000
    12  C    0.000000   0.000000
    13  C    0.000000   0.000000
    14  H    0.000000   0.000000
    15  C    0.000000   0.000000
    16  H    0.000000   0.000000
    17  O    0.000000   0.000000
    18  Cl   0.000000   0.000000
    19  C    0.000000   0.000000
    20  C    0.000000   0.000000
    21  H    0.000000   0.000000
    22  C    0.000000   0.000000
    23  H    0.000000   0.000000
    24  H    0.000000   0.000000
    25  H    0.000000   0.000000
    26  C    0.000000   0.000000
    27  H    0.000000   0.000000
    28  H    0.000000   0.000000
    29  H    0.000000   0.000000
    30  C    0.000000   0.000000
    31  H    0.861648   0.000000
    32  H    0.000000   0.862866
 Mulliken charges:
               1
     1  C   -0.089360
     2  C   -0.203630
     3  C    0.080196
     4  C   -0.173542
     5  C   -0.073968
     6  C   -0.194366
     7  H    0.151240
     8  H    0.170346
     9  H    0.164138
    10  H    0.159162
    11  C    0.432753
    12  C   -0.066596
    13  C   -0.359857
    14  H    0.190776
    15  C   -0.088105
    16  H    0.165616
    17  O   -0.572876
    18  Cl  -0.101192
    19  C    0.507068
    20  C   -0.464440
    21  H    0.176088
    22  C   -0.567719
    23  H    0.179179
    24  H    0.193352
    25  H    0.179679
    26  C   -0.572797
    27  H    0.182004
    28  H    0.181653
    29  H    0.185176
    30  C   -0.045466
    31  H    0.138352
    32  H    0.137134
 Sum of Mulliken charges =   0.00000
 Mulliken charges with hydrogens summed into heavy atoms:
               1
     1  C    0.061880
     2  C   -0.033284
     3  C    0.080196
     4  C   -0.173542
     5  C    0.090170
     6  C   -0.035204
    11  C    0.432753
    12  C   -0.066596
    13  C   -0.169081
    15  C    0.077511
    17  O   -0.572876
    18  Cl  -0.101192
    19  C    0.507068
    20  C   -0.288352
    22  C   -0.015509
    26  C   -0.023964
    30  C    0.230020
 Charge=              0.0000 electrons
 Dipole moment (field-independent basis, Debye):
    X=              2.2883    Y=              0.6119    Z=              2.1189  Tot=              3.1782
 N-N= 6.580889795717D+02 E-N=-1.203247336115D+03  KE=-5.674336991538D+01
 1\1\GINC-D10S0B4\FTS\RPM6\ZDO\C15H15Cl1O1\CHMKSH\11-Aug-2020\0\\# opt=
 qst3 pm6 scrf=(cpcm,solvent=toluene) geom=connectivity empiricaldisper
 sion=gd3\\Title Card Required\\0,1\C,2.4083559801,2.6461995477,-0.1784
 989857\C,2.6781543322,1.2883153873,-0.2268039295\C,1.665272808,0.34927
 69107,0.0854909317\C,0.3793211299,0.8171292089,0.4418696117\C,0.126995
 8613,2.2076393908,0.4947157707\C,1.1269320821,3.1123495876,0.184916611
 5\H,3.1897025825,3.3682300049,-0.4198717971\H,3.6760743911,0.948144645
 ,-0.5041657204\H,-0.8721879621,2.5437884034,0.7839714032\H,0.935635928
 1,4.1839850011,0.2208372205\C,-0.6858939641,-0.1395654161,0.7787055655
 \C,1.881854486,-1.084401113,0.0673472685\C,-0.4246934212,-1.5422539803
 ,0.7023400992\H,-1.0302893749,-2.2129846989,1.3222097049\C,0.918817012
 ,-1.9822781704,0.3949947558\H,1.1159282529,-3.0561839864,0.4144188388\
 O,-1.8764298595,0.2918699717,1.0036906272\Cl,3.4504045932,-1.663255481
 7,-0.373872595\C,-3.0653067852,-0.0942230329,-0.3451765202\C,-2.761768
 4959,-1.4707722377,-0.5091945467\H,-3.4361057389,-2.1924062352,-0.0478
 741781\C,-4.3077255522,0.2897924045,0.4045856398\H,-4.6721715407,-0.50
 85055781,1.064506269\H,-4.1162480435,1.1605829169,1.0536119125\H,-5.12
 7925541,0.561987126,-0.2728372897\C,-2.5926613058,0.9214153312,-1.3478
 001429\H,-1.5673290866,0.7385617229,-1.6982103243\H,-3.2409117288,0.91
 49478695,-2.2363576247\H,-2.6056473024,1.9424322246,-0.9410176007\C,-1
 .5130748628,-1.9093585358,-0.9370518648\H,-1.3136619838,-2.9770421612,
 -1.0178729141\H,-0.9035878902,-1.313915027,-1.6166541965\\Version=ES64
 L-G09RevD.01\State=1-A\HF=0.0182852\RMSD=6.156e-09\RMSF=3.590e-06\Dipo
 le=-0.9068829,0.2799631,-0.8140275\PG=C01 [X(C15H15Cl1O1)]\\@


    UPON JULIA'S CLOTHES

 WHENAS IN SILKS MY JULIA GOES,
 THEN, THEN, METHINKS, HOW SWEETLY FLOWS
 THAT LIQUEFACTION OF HER CLOTHES.

 NEXT, WHEN I CAST MINE EYES, AND SEE
 THAT BRAVE VIBRATION, EACH WAY FREE,
 O, HOW THAT GLITTERING TAKETH ME!
     -- ROBERT HERRICK, 1648
 Job cpu time:       0 days  0 hours 30 minutes  4.0 seconds.
 File lengths (MBytes):  RWF=     99 Int=      0 D2E=      0 Chk=      7 Scr=      1
 Normal termination of Gaussian 09 at Tue Aug 11 05:24:51 2020.
