 Entering Gaussian System, Link 0=g09
 Input=freq_PM6_Diels_Alder_4H2O_TS_1_water.com
 Output=freq_PM6_Diels_Alder_4H2O_TS_1_water.log
 Initial command:
 /apps/applications/gaussian/G09.D01/2/default/g09/l1.exe "/local/702549.1.40core-192G.q/Gau-398099.inp" -scrdir="/local/702549.1.40core-192G.q/"
 Entering Link 1 = /apps/applications/gaussian/G09.D01/2/default/g09/l1.exe PID=    398100.
  
 Copyright (c) 1988,1990,1992,1993,1995,1998,2003,2009,2013,
            Gaussian, Inc.  All Rights Reserved.
  
 This is part of the Gaussian(R) 09 program.  It is based on
 the Gaussian(R) 03 system (copyright 2003, Gaussian, Inc.),
 the Gaussian(R) 98 system (copyright 1998, Gaussian, Inc.),
 the Gaussian(R) 94 system (copyright 1995, Gaussian, Inc.),
 the Gaussian 92(TM) system (copyright 1992, Gaussian, Inc.),
 the Gaussian 90(TM) system (copyright 1990, Gaussian, Inc.),
 the Gaussian 88(TM) system (copyright 1988, Gaussian, Inc.),
 the Gaussian 86(TM) system (copyright 1986, Carnegie Mellon
 University), and the Gaussian 82(TM) system (copyright 1983,
 Carnegie Mellon University). Gaussian is a federally registered
 trademark of Gaussian, Inc.
  
 This software contains proprietary and confidential information,
 including trade secrets, belonging to Gaussian, Inc.
  
 This software is provided under written license and may be
 used, copied, transmitted, or stored only in accord with that
 written license.
  
 The following legend is applicable only to US Government
 contracts under FAR:
  
                    RESTRICTED RIGHTS LEGEND
  
 Use, reproduction and disclosure by the US Government is
 subject to restrictions as set forth in subparagraphs (a)
 and (c) of the Commercial Computer Software - Restricted
 Rights clause in FAR 52.227-19.
  
 Gaussian, Inc.
 340 Quinnipiac St., Bldg. 40, Wallingford CT 06492
  
  
 ---------------------------------------------------------------
 Warning -- This program may not be used in any manner that
 competes with the business of Gaussian, Inc. or will provide
 assistance to any competitor of Gaussian, Inc.  The licensee
 of this program is prohibited from giving any competitor of
 Gaussian, Inc. access to this program.  By using this program,
 the user acknowledges that Gaussian, Inc. is engaged in the
 business of creating and licensing software in the field of
 computational chemistry and represents and warrants to the
 licensee that it is not a competitor of Gaussian, Inc. and that
 it will not use this program in any manner prohibited above.
 ---------------------------------------------------------------
  

 Cite this work as:
 Gaussian 09, Revision D.01,
 M. J. Frisch, G. W. Trucks, H. B. Schlegel, G. E. Scuseria, 
 M. A. Robb, J. R. Cheeseman, G. Scalmani, V. Barone, B. Mennucci, 
 G. A. Petersson, H. Nakatsuji, M. Caricato, X. Li, H. P. Hratchian, 
 A. F. Izmaylov, J. Bloino, G. Zheng, J. L. Sonnenberg, M. Hada, 
 M. Ehara, K. Toyota, R. Fukuda, J. Hasegawa, M. Ishida, T. Nakajima, 
 Y. Honda, O. Kitao, H. Nakai, T. Vreven, J. A. Montgomery, Jr., 
 J. E. Peralta, F. Ogliaro, M. Bearpark, J. J. Heyd, E. Brothers, 
 K. N. Kudin, V. N. Staroverov, T. Keith, R. Kobayashi, J. Normand, 
 K. Raghavachari, A. Rendell, J. C. Burant, S. S. Iyengar, J. Tomasi, 
 M. Cossi, N. Rega, J. M. Millam, M. Klene, J. E. Knox, J. B. Cross, 
 V. Bakken, C. Adamo, J. Jaramillo, R. Gomperts, R. E. Stratmann, 
 O. Yazyev, A. J. Austin, R. Cammi, C. Pomelli, J. W. Ochterski, 
 R. L. Martin, K. Morokuma, V. G. Zakrzewski, G. A. Voth, 
 P. Salvador, J. J. Dannenberg, S. Dapprich, A. D. Daniels, 
 O. Farkas, J. B. Foresman, J. V. Ortiz, J. Cioslowski, 
 and D. J. Fox, Gaussian, Inc., Wallingford CT, 2013.
 
 ******************************************
 Gaussian 09:  ES64L-G09RevD.01 24-Apr-2013
                18-Aug-2020 
 ******************************************
 %nprocshared=4
 Will use up to    4 processors via shared memory.
 %chk=PM6_Diels_Alder_4H2O.chk
 ----------------------------------------------------------------------
 # freq pm6 scrf=(cpcm,solvent=water) geom=connectivity empiricaldisper
 sion=gd3
 ----------------------------------------------------------------------
 1/10=4,30=1,38=1,57=2/1,3;
 2/12=2,17=6,18=5,40=1/2;
 3/5=2,16=1,25=1,41=3900000,70=2101,71=2,72=1,124=31,140=1/1,2,3;
 4/35=1/1;
 5/5=2,35=1,38=5,53=1,98=1/2;
 8/6=4,10=90,11=11/1;
 11/6=1,8=1,9=11,15=111,16=1/1,2,10;
 10/6=1/2;
 6/7=2,8=2,9=2,10=2,18=1,28=1/1;
 7/8=1,10=1,25=1/1,2,3,16;
 1/10=4,30=1/3;
 99//99;
 -------------------
 Title Card Required
 -------------------
 Symbolic Z-matrix:
 Charge =  0 Multiplicity = 1
 C                     2.47605   0.77506   0.70528 
 C                     1.61228  -0.40218   0.77487 
 C                     0.30819  -0.08075   0.38934 
 C                     0.28276   1.43212   0.1483 
 H                     1.93107  -1.31122   1.25451 
 H                    -0.58604  -0.56451   0.78267 
 C                     2.06754   3.27123   0.14235 
 H                     1.52516   3.76737  -0.68625 
 H                     1.90017   3.85443   1.06549 
 H                     3.14718   3.29469  -0.09091 
 N                     1.61402   1.88014   0.3101 
 O                    -0.67292   2.13602  -0.12144 
 O                     3.66327   0.92471   0.92106 
 C                     1.63156  -2.44315  -1.18938 
 H                     1.79921  -3.50307  -0.96873 
 C                     0.30254  -2.01504  -1.37815 
 H                    -0.49412  -2.77469  -1.31724 
 C                     2.6854   -1.56155  -1.16572 
 H                     2.58471  -0.54736  -1.57449 
 C                     4.05297  -1.9533   -0.7654 
 H                     4.6304   -1.10454  -0.36327 
 H                     4.0832   -2.75795  -0.01473 
 H                     4.62614  -2.32657  -1.636 
 C                    -0.05878  -0.66828  -1.46932 
 H                     0.65175   0.04231  -1.9275 
 C                    -1.49374  -0.30965  -1.75077 
 H                    -1.83845  -0.67636  -2.73952 
 H                    -1.6821    0.77867  -1.67365 
 C                    -3.30382  -0.46468  -0.03681 
 C                    -3.61933   0.9655   -0.17517 
 H                    -4.09034   1.20514  -1.14639 
 H                    -4.33012   1.30711   0.60257 
 H                    -2.72455   1.62     -0.08987 
 O                    -2.31493  -1.0572   -0.79466 
 O                    -3.83851  -1.27048   0.71453 
 H                     4.42684  -0.50382   1.99963 
 H                    -0.60573   3.93016  -0.6819 
 H                    -2.96276  -3.00795   0.56315 
 H                    -5.20603  -0.4952    1.89338 
 O                    -2.30463  -3.59309   0.14327 
 H                    -1.88113  -3.04144  -0.53466 
 O                    -5.70764   0.25477   2.25476 
 H                    -6.31018  -0.11826   2.89861 
 O                    -0.45057   4.77584  -1.14418 
 H                    -1.06343   4.78321  -1.87975 
 O                     4.6366   -1.24886   2.58772 
 H                     5.42385  -1.65671   2.22918 
 

 GradGradGradGradGradGradGradGradGradGradGradGradGradGradGradGradGradGrad
 Berny optimization.
 Initialization pass.
 Trust Radius=3.00D-01 FncErr=1.00D-07 GrdErr=1.00D-07
 Number of steps in this run=      2 maximum allowed number of steps=      2.
 GradGradGradGradGradGradGradGradGradGradGradGradGradGradGradGradGradGrad

                          Input orientation:                          
 ---------------------------------------------------------------------
 Center     Atomic      Atomic             Coordinates (Angstroms)
 Number     Number       Type             X           Y           Z
 ---------------------------------------------------------------------
      1          6           0        2.476045    0.775062    0.705276
      2          6           0        1.612280   -0.402184    0.774871
      3          6           0        0.308186   -0.080754    0.389343
      4          6           0        0.282761    1.432115    0.148300
      5          1           0        1.931074   -1.311217    1.254509
      6          1           0       -0.586044   -0.564505    0.782665
      7          6           0        2.067545    3.271232    0.142346
      8          1           0        1.525158    3.767371   -0.686252
      9          1           0        1.900171    3.854429    1.065490
     10          1           0        3.147185    3.294693   -0.090907
     11          7           0        1.614017    1.880137    0.310101
     12          8           0       -0.672915    2.136022   -0.121444
     13          8           0        3.663274    0.924705    0.921059
     14          6           0        1.631562   -2.443149   -1.189383
     15          1           0        1.799206   -3.503070   -0.968732
     16          6           0        0.302541   -2.015038   -1.378153
     17          1           0       -0.494118   -2.774692   -1.317237
     18          6           0        2.685401   -1.561553   -1.165715
     19          1           0        2.584708   -0.547361   -1.574489
     20          6           0        4.052966   -1.953304   -0.765401
     21          1           0        4.630395   -1.104543   -0.363272
     22          1           0        4.083197   -2.757954   -0.014730
     23          1           0        4.626141   -2.326570   -1.635996
     24          6           0       -0.058781   -0.668278   -1.469315
     25          1           0        0.651747    0.042312   -1.927501
     26          6           0       -1.493735   -0.309645   -1.750774
     27          1           0       -1.838451   -0.676358   -2.739522
     28          1           0       -1.682096    0.778672   -1.673652
     29          6           0       -3.303819   -0.464676   -0.036808
     30          6           0       -3.619326    0.965502   -0.175169
     31          1           0       -4.090343    1.205139   -1.146391
     32          1           0       -4.330117    1.307107    0.602570
     33          1           0       -2.724547    1.619996   -0.089869
     34          8           0       -2.314929   -1.057197   -0.794656
     35          8           0       -3.838514   -1.270483    0.714529
     36          1           0        4.426842   -0.503819    1.999625
     37          1           0       -0.605730    3.930155   -0.681897
     38          1           0       -2.962764   -3.007948    0.563150
     39          1           0       -5.206025   -0.495201    1.893382
     40          8           0       -2.304632   -3.593092    0.143270
     41          1           0       -1.881134   -3.041438   -0.534659
     42          8           0       -5.707638    0.254766    2.254762
     43          1           0       -6.310182   -0.118258    2.898611
     44          8           0       -0.450568    4.775837   -1.144177
     45          1           0       -1.063432    4.783212   -1.879745
     46          8           0        4.636603   -1.248857    2.587716
     47          1           0        5.423847   -1.656710    2.229181
 ---------------------------------------------------------------------
                    Distance matrix (angstroms):
                    1          2          3          4          5
     1  C    0.000000
     2  C    1.461794   0.000000
     3  C    2.351988   1.397358   0.000000
     4  C    2.356361   2.350503   1.532162   0.000000
     5  H    2.225132   1.076115   2.212762   3.386223   0.000000
     6  H    3.343175   2.204322   1.090121   2.267980   2.667602
     7  C    2.591260   3.755175   3.793700   2.562780   4.717454
     8  H    3.434305   4.419011   4.176840   2.773707   5.451915
     9  H    3.153393   4.276224   4.298518   3.053663   5.169195
    10  H    2.726330   4.095413   4.436688   3.425105   4.950099
    11  N    1.456175   2.329164   2.357237   1.413912   3.343228
    12  O    3.528686   3.531004   2.477410   1.217195   4.534034
    13  O    1.215923   2.447158   3.542638   3.504638   2.847991
    14  C    3.828807   2.832703   3.134423   4.315823   2.709905
    15  H    4.643579   3.562385   3.972374   5.282368   3.124805
    16  C    4.104809   2.992027   2.620215   3.770055   3.174648
    17  H    5.051057   3.800345   3.288375   4.522009   3.825858
    18  C    3.000701   2.502319   3.203455   4.057260   2.547383
    19  H    2.637790   2.546799   3.042517   3.490743   3.002323
    20  C    3.477578   3.276486   4.343185   5.148821   2.999123
    21  H    3.052201   3.301166   4.505115   5.059472   3.153770
    22  H    3.947600   3.504077   4.645577   5.659202   2.887152
    23  H    4.441237   4.312644   5.271662   6.014680   4.080361
    24  C    3.638326   2.810627   1.983547   2.673010   3.433964
    25  H    3.285803   2.902243   2.345409   2.525204   3.686991
    26  C    4.792486   4.004345   2.807029   3.129880   4.665211
    27  H    5.708601   4.932917   3.840910   4.157489   5.528530
    28  H    4.790558   4.271136   2.992622   2.758108   5.098702
    29  C    5.957723   4.983047   3.657264   4.061482   5.457860
    30  C    6.161574   5.490250   4.103496   3.943177   6.167201
    31  H    6.836014   6.228535   4.833121   4.566375   6.953692
    32  H    6.827698   6.185745   4.846182   4.636877   6.817856
    33  H    5.328445   4.862618   3.509938   3.022569   5.663406
    34  O    5.344193   4.279653   3.039083   3.719386   4.721456
    35  O    6.637620   5.519850   4.326236   4.960802   5.794945
    36  H    2.667674   3.071174   4.442445   4.934435   2.726893
    37  H    4.623440   5.080443   4.250904   2.778281   6.136532
    38  H    6.626614   5.269332   4.392925   5.515405   5.225564
    39  H    7.876507   6.910065   5.730656   6.073436   7.211950
    40  O    6.500115   5.091465   4.384505   5.652197   4.937916
    41  H    5.923523   4.569953   3.796387   5.016129   4.552770
    42  O    8.345315   7.496857   6.307337   6.458190   7.861471
    43  H    9.099809   8.207088   7.078180   7.309909   8.487905
    44  O    5.290722   5.894912   5.149162   3.659063   6.962624
    45  H    5.939318   6.410519   5.539699   4.141866   7.478815
    46  O    3.508253   3.626264   4.993246   5.665183   3.016822
    47  H    4.114042   4.268126   5.660268   6.348360   3.642638
                    6          7          8          9         10
     6  H    0.000000
     7  C    4.707911   0.000000
     8  H    5.037861   1.107661   0.000000
     9  H    5.078212   1.104684   1.793548   0.000000
    10  H    5.439994   1.104799   1.791321   1.790420   0.000000
    11  N    3.322628   1.472744   2.135946   2.133149   2.124236
    12  O    2.849176   2.977987   2.794966   3.313986   3.992069
    13  O    4.504842   2.942607   3.903298   3.422379   2.628168
    14  C    3.512272   5.883684   6.231775   6.694482   6.035445
    15  H    4.170368   6.870056   7.281086   7.634202   6.985500
    16  C    2.750048   5.776834   5.950611   6.555490   6.159728
    17  H    3.050076   6.726492   6.875624   7.440111   7.183342
    18  C    3.936069   5.044659   5.474804   5.909968   4.995156
    19  H    3.950967   4.218606   4.530841   5.178208   4.156775
    20  C    5.083865   5.662303   6.254774   6.458827   5.368133
    21  H    5.368058   5.096200   5.786394   5.838398   4.650524
    22  H    5.220045   6.359136   7.040907   7.046708   6.125068
    23  H    6.010130   6.406583   6.903204   7.275554   6.014417
    24  C    2.315208   4.757988   4.774624   5.542347   5.280470
    25  H    3.040617   4.088358   4.022389   5.004877   4.492023
    26  C    2.703178   5.393450   5.183530   6.065431   6.106108
    27  H    3.739898   6.256631   5.939403   6.998817   6.902244
    28  H    3.006484   4.854947   4.493747   5.458554   5.670749
    29  C    2.840388   6.545277   6.453760   6.852098   7.466675
    30  C    3.529755   6.144730   5.880254   6.352163   7.156668
    31  H    4.374129   6.621870   6.189557   6.913567   7.606714
    32  H    4.189684   6.708180   6.480602   6.746824   7.767976
    33  H    3.179081   5.073919   4.798634   5.264557   6.105886
    34  O    2.391596   6.230518   6.167210   6.734336   7.019181
    35  O    3.328905   7.472356   7.490737   7.701974   8.383886
    36  H    5.158847   4.823565   5.820375   5.123573   4.520679
    37  H    4.727293   2.874014   2.137101   3.055918   3.851941
    38  H    3.415757   8.056624   8.222372   8.425717   8.802417
    39  H    4.752128   8.375975   8.374536   8.372736   9.384925
    40  O    3.540439   8.138481   8.338574   8.602118   8.787419
    41  H    3.089951   7.476644   7.614833   8.025692   8.101078
    42  O    5.391567   8.603188   8.561618   8.500041   9.651487
    43  H    6.118997   9.448383   9.452085   9.303358  10.489387
    44  O    5.678937   3.203103   2.264993   3.355234   4.030756
    45  H    5.992863   4.022183   3.026079   4.280186   4.810917
    46  O    5.567997   5.745529   6.750000   5.987383   5.480623
    47  H    6.277269   6.316982   7.288359   6.644029   5.923039
                   11         12         13         14         15
    11  N    0.000000
    12  O    2.341317   0.000000
    13  O    2.342130   4.621324   0.000000
    14  C    4.575977   5.236403   4.463660   0.000000
    15  H    5.536120   6.215194   5.162485   1.095547   0.000000
    16  C    4.443260   4.445462   5.022250   1.408975   2.149854
    17  H    5.362825   5.057371   5.998284   2.155176   2.431322
    18  C    3.895013   5.103024   3.390035   1.374172   2.143276
    19  H    3.222835   4.463630   3.091608   2.156573   3.117719
    20  C    4.669095   6.282612   3.358414   2.506573   2.742727
    21  H    4.296543   6.219714   2.588953   3.386344   3.759673
    22  H    5.264433   6.825173   3.822828   2.736682   2.584943
    23  H    5.527800   7.091445   4.246932   3.029943   3.133840
    24  C    3.529730   3.171437   4.701614   2.466939   3.426185
    25  H    3.051299   3.065973   4.238184   2.771709   3.847809
    26  C    4.324404   3.051188   5.937765   3.825504   4.653280
    27  H    5.268340   4.015257   6.799429   4.191118   4.935438
    28  H    4.001607   2.295691   5.943638   4.647040   5.563245
    29  C    5.459268   3.700331   7.168561   5.440659   6.011754
    30  C    5.334784   3.170858   7.364757   6.341873   7.068123
    31  H    5.925936   3.687258   8.029419   6.786166   7.542253
    32  H    5.978849   3.819218   8.008868   7.267540   7.948295
    33  H    4.364721   2.115768   6.504588   6.057538   6.890758
    34  O    5.028423   3.653228   6.527674   4.201364   4.789437
    35  O    6.310314   4.724843   7.819100   5.909463   6.292988
    36  H    4.055826   6.121700   1.946027   4.663085   4.971028
    37  H    3.180238   1.880833   5.461373   6.773627   7.817853
    38  H    6.701070   5.672081   7.713510   4.949566   5.026745
    39  H    7.393374   5.615331   9.034711   7.749228   8.143232
    40  O    6.733489   5.962828   7.525380   4.311839   4.252780
    41  H    6.095211   5.332601   6.970643   3.622933   3.734491
    42  O    7.747914   5.876556   9.489024   8.544281   8.992494
    43  H    8.572450   6.780951  10.220974   9.229741   9.600806
    44  O    3.842202   2.839726   6.001676   7.513393   8.580942
    45  H    4.515751   3.201834   6.713742   7.743377   8.814029
    46  O    4.910617   6.854775   2.906800   4.972231   5.077462
    47  H    5.541386   7.555181   3.387404   5.165897   5.174332
                   16         17         18         19         20
    16  C    0.000000
    17  H    1.102475   0.000000
    18  C    2.434913   3.406465   0.000000
    19  H    2.720461   3.808720   1.098099   0.000000
    20  C    3.800653   4.653512   1.477821   2.187940   0.000000
    21  H    4.537544   5.473580   2.153085   2.441789   1.102510
    22  H    4.087078   4.759056   2.170248   3.092740   1.100855
    23  H    4.342471   5.149706   2.138431   2.708656   1.107155
    24  C    1.397364   2.156299   2.901835   2.648342   4.365003
    25  H    2.157873   3.101764   2.699713   2.051504   4.111113
    26  C    2.504759   2.695115   4.401675   4.089166   5.868430
    27  H    2.868665   2.869343   4.870901   4.575836   6.343228
    28  H    3.439610   3.763605   4.980932   4.469207   6.417129
    29  C    4.148332   3.856176   6.192603   6.086547   7.541163
    30  C    5.070683   5.006026   6.864166   6.537346   8.229937
    31  H    5.451668   5.366664   7.318857   6.914538   8.742677
    32  H    6.035017   5.921286   7.782900   7.482877   9.098225
    33  H    4.902694   5.078831   6.367671   5.923658   7.691521
    34  O    2.847644   2.556997   5.039381   4.987436   6.430704
    35  O    4.699151   4.192339   6.795698   6.857134   8.058033
    36  H    5.541031   6.354076   3.764412   4.021150   3.144226
    37  H    6.054341   6.735806   6.420629   5.569898   7.505032
    38  H    3.926416   3.111989   6.081349   6.434162   7.217880
    39  H    6.584614   6.140539   8.530521   8.527859   9.742900
    40  O    3.406220   2.465932   5.544459   6.011058   6.628246
    41  H    2.556055   1.614743   4.841646   5.219714   6.037451
    42  O    7.380537   7.008394   9.243472   9.168946  10.453054
    43  H    8.100407   7.658761   9.976089   9.965532  11.143932
    44  O    6.836512   7.552638   7.070875   6.142842   8.105963
    45  H    6.952243   7.600161   7.404028   6.466615   8.532288
    46  O    5.924461   6.625793   4.241841   4.693221   3.475668
    47  H    6.274475   6.989226   4.362735   4.874348   3.306782
                   21         22         23         24         25
    21  H    0.000000
    22  H    1.776141   0.000000
    23  H    1.764425   1.763344   0.000000
    24  C    4.837564   4.861949   4.972546   0.000000
    25  H    4.426254   4.824420   4.635988   1.104411   0.000000
    26  C    6.329454   6.333264   6.444691   1.505633   2.181330
    27  H    6.904772   6.842766   6.762538   2.186485   2.716054
    28  H    6.716482   6.964076   7.031202   2.184163   2.460384
    29  C    7.966666   7.734831   8.301103   3.552999   4.413418
    30  C    8.507548   8.556794   8.997749   4.125716   4.707973
    31  H    9.055340   9.153880   9.417525   4.457293   4.944666
    32  H    9.329506   9.364274   9.921156   5.141903   5.728869
    33  H    7.848123   8.094286   8.485193   3.774305   4.155158
    34  O    6.958869   6.666099   7.106167   2.386761   3.360569
    35  O    8.538830   8.093077   8.848202   4.406609   5.372727
    36  H    2.446546   3.042506   4.071840   5.672866   5.474662
    37  H    7.270950   8.195239   8.211540   4.697315   4.271780
    38  H    7.882720   7.074038   7.930448   4.247127   5.345289
    39  H   10.110338   9.749389  10.605749   6.150757   7.014382
    40  O    7.385395   6.444127   7.266738   4.024775   5.122932
    41  H    6.795656   5.993658   6.638419   3.134715   4.226702
    42  O   10.750663  10.492260  11.339677   6.828642   7.614344
    43  H   11.459008  11.112060  12.043358   7.646000   8.472638
    44  O    7.810561   8.865026   8.744086   5.467870   4.922901
    45  H    8.329767   9.318544   9.109317   5.558464   5.041850
    46  O    2.954521   3.058816   4.359050   6.232432   6.159008
    47  H    2.766815   2.836409   4.003079   6.686934   6.552680
                   26         27         28         29         30
    26  C    0.000000
    27  H    1.109473   0.000000
    28  H    1.107186   1.810425   0.000000
    29  C    2.497622   3.081684   2.618236   0.000000
    30  C    2.937119   3.527482   2.456261   1.471087   0.000000
    31  H    3.066304   3.339029   2.501906   2.153619   1.105692
    32  H    4.024572   4.616504   3.531635   2.145066   1.107608
    33  H    2.827900   3.616500   2.074343   2.164308   1.111876
    34  O    1.465386   2.038277   2.131555   1.379608   2.485262
    35  O    3.535381   4.035307   3.814785   1.224635   2.416451
    36  H    7.011165   7.857683   7.242712   7.994480   8.463418
    37  H    4.461721   5.193591   3.474764   5.197150   4.257664
    38  H    3.846184   4.196193   4.580599   2.635242   4.094447
    39  H    5.205324   5.730373   5.173448   2.710157   2.988339
    40  O    3.876336   4.127366   4.775047   3.289041   4.755061
    41  H    3.015246   3.233705   3.991261   2.985229   4.382478
    42  O    5.841220   6.385959   5.649062   3.398122   3.281883
    43  H    6.697132   7.217783   6.567287   4.216030   4.226507
    44  O    5.226690   5.847886   4.215962   6.068796   5.049619
    45  H    5.112630   5.580930   4.057285   5.996339   4.900315
    46  O    7.568729   8.404376   7.886450   8.399605   8.983167
    47  H    8.093674   8.853817   8.465082   9.095483   9.717812
                   31         32         33         34         35
    31  H    0.000000
    32  H    1.768263   0.000000
    33  H    1.775878   1.776296   0.000000
    34  O    2.897236   3.406341   2.798549   0.000000
    35  O    3.107273   2.626438   3.200445   2.155097   0.000000
    36  H    9.239069   9.050721   7.747189   7.318860   8.399724
    37  H    4.447920   4.733001   3.190097   5.273306   6.280727
    38  H    4.684449   4.526688   4.679855   2.463485   1.951573
    39  H    3.657338   2.383637   3.816422   3.987458   1.964903
    40  O    5.279679   5.322170   5.235167   2.703807   2.841416
    41  H    4.825789   5.118657   4.757957   2.047679   2.920289
    42  O    3.884159   2.394728   4.032366   4.746648   2.862224
    43  H    4.800115   3.350243   4.980895   5.521220   3.493849
    44  O    5.098809   5.489455   4.030121   6.133701   7.175720
    45  H    4.743691   5.377399   3.996110   6.070753   7.146927
    46  O    9.804348   9.532881   8.341841   7.733109   8.679683
    47  H   10.493068  10.323269   9.083563   8.330166   9.393331
                   36         37         38         39         40
    36  H    0.000000
    37  H    7.223397   0.000000
    38  H    7.933499   7.432565   0.000000
    39  H    9.633457   6.883208   3.621551   0.000000
    40  O    7.635601   7.756701   0.975618   4.591068   0.000000
    41  H    7.256216   7.088825   1.541502   4.840827   0.971216
    42  O   10.166033   6.939879   4.587067   0.971937   5.553815
    43  H   10.781490   7.858146   5.000989   1.540044   5.975852
    44  O    7.845214   0.976195   8.355442   7.721721   8.667990
    45  H    8.552504   1.540142   8.383160   7.698000   8.706069
    46  O    0.972076   8.061922   8.058762   9.895829   7.723438
    47  H    1.541387   8.720277   8.656601  10.698413   8.235896
                   41         42         43         44         45
    41  H    0.000000
    42  O    5.769572   0.000000
    43  H    6.320506   0.957469   0.000000
    44  O    7.970434   7.722024   8.638945   0.000000
    45  H    7.981418   7.692179   8.624702   0.957453   0.000000
    46  O    7.446037  10.458253  11.009406   8.723719   9.425204
    47  H    7.932152  11.294439  11.853371   9.341625  10.022009
                   46         47
    46  O    0.000000
    47  H    0.956370   0.000000
 Stoichiometry    C13H25NO8
 Framework group  C1[X(C13H25NO8)]
 Deg. of freedom   135
 Full point group                 C1      NOp   1
 Largest Abelian subgroup         C1      NOp   1
 Largest concise Abelian subgroup C1      NOp   1
                         Standard orientation:                         
 ---------------------------------------------------------------------
 Center     Atomic      Atomic             Coordinates (Angstroms)
 Number     Number       Type             X           Y           Z
 ---------------------------------------------------------------------
      1          6           0        2.476045    0.775062    0.705276
      2          6           0        1.612280   -0.402184    0.774871
      3          6           0        0.308186   -0.080754    0.389343
      4          6           0        0.282761    1.432115    0.148300
      5          1           0        1.931074   -1.311217    1.254509
      6          1           0       -0.586044   -0.564505    0.782665
      7          6           0        2.067545    3.271232    0.142346
      8          1           0        1.525158    3.767371   -0.686252
      9          1           0        1.900171    3.854429    1.065490
     10          1           0        3.147185    3.294693   -0.090907
     11          7           0        1.614017    1.880137    0.310101
     12          8           0       -0.672915    2.136022   -0.121444
     13          8           0        3.663274    0.924705    0.921059
     14          6           0        1.631562   -2.443149   -1.189383
     15          1           0        1.799206   -3.503070   -0.968732
     16          6           0        0.302541   -2.015038   -1.378153
     17          1           0       -0.494118   -2.774692   -1.317237
     18          6           0        2.685401   -1.561553   -1.165715
     19          1           0        2.584708   -0.547361   -1.574489
     20          6           0        4.052966   -1.953304   -0.765401
     21          1           0        4.630395   -1.104543   -0.363272
     22          1           0        4.083197   -2.757954   -0.014730
     23          1           0        4.626141   -2.326570   -1.635996
     24          6           0       -0.058781   -0.668278   -1.469315
     25          1           0        0.651747    0.042312   -1.927501
     26          6           0       -1.493735   -0.309645   -1.750774
     27          1           0       -1.838451   -0.676358   -2.739522
     28          1           0       -1.682096    0.778672   -1.673652
     29          6           0       -3.303819   -0.464676   -0.036808
     30          6           0       -3.619326    0.965502   -0.175169
     31          1           0       -4.090343    1.205139   -1.146391
     32          1           0       -4.330117    1.307107    0.602570
     33          1           0       -2.724547    1.619996   -0.089869
     34          8           0       -2.314929   -1.057197   -0.794656
     35          8           0       -3.838514   -1.270483    0.714529
     36          1           0        4.426842   -0.503819    1.999625
     37          1           0       -0.605730    3.930155   -0.681897
     38          1           0       -2.962764   -3.007948    0.563150
     39          1           0       -5.206025   -0.495201    1.893382
     40          8           0       -2.304632   -3.593092    0.143270
     41          1           0       -1.881134   -3.041438   -0.534659
     42          8           0       -5.707638    0.254766    2.254762
     43          1           0       -6.310182   -0.118258    2.898611
     44          8           0       -0.450568    4.775837   -1.144177
     45          1           0       -1.063432    4.783212   -1.879745
     46          8           0        4.636603   -1.248857    2.587716
     47          1           0        5.423847   -1.656710    2.229181
 ---------------------------------------------------------------------
 Rotational constants (GHZ):      0.2909584      0.1666589      0.1298117
 Standard basis: VSTO-6G (5D, 7F)
 There are   113 symmetry adapted cartesian basis functions of A   symmetry.
 There are   113 symmetry adapted basis functions of A   symmetry.
   113 basis functions,   678 primitive gaussians,   113 cartesian basis functions
    65 alpha electrons       65 beta electrons
       nuclear repulsion energy      1193.4617825926 Hartrees.
 Integral buffers will be    131072 words long.
 Regular integral format.
 Two-electron integral symmetry is turned off.
 Nuclear repulsion after empirical dispersion term =     1193.4422569033 Hartrees.
 Force inversion solution in PCM.
 ------------------------------------------------------------------------------
 Polarizable Continuum Model (PCM)
 =================================
 Model                : C-PCM.
 Atomic radii         : UFF (Universal Force Field).
 Polarization charges : Total charges.
 Charge compensation  : None.
 Solution method      : Matrix inversion.
 Cavity type          : Scaled VdW (van der Waals Surface) (Alpha=1.100).
 Cavity algorithm     : GePol (No added spheres)
                        Default sphere list used, NSphG=   47.
                        Lebedev-Laikov grids with approx.  5.0 points / Ang**2.
                        Smoothing algorithm: Karplus/York (Gamma=1.0000).
                        Polarization charges: spherical gaussians, with
                                              point-specific exponents (IZeta= 3).
                        Self-potential: point-specific (ISelfS= 7).
                        Self-field    : sphere-specific E.n sum rule (ISelfD= 2).
 1st derivatives      : Analytical E(r).r(x)/FMM algorithm (CHGder, D1EAlg=3).
                        Cavity 1st derivative terms included.
 2nd derivatives      : Analytical E(r).r(xy)/FMM algorithm (CHGder, D2EAlg=3).
                        Cavity 2nd derivative terms included.
 Solvent              : Water, Eps=  78.355300 Eps(inf)=   1.777849
 ------------------------------------------------------------------------------
 Do NDO integrals.
 One-electron integrals computed using PRISM.
 NBasis=   113 RedAO= F EigKep=  0.00D+00  NBF=   113
 NBsUse=   113 1.00D-04 EigRej=  0.00D+00 NBFU=   113
 Simple Huckel Guess.
 Overlap will be assumed to be unity.
 Keep J ints in memory in canonical form, NReq=15452631.
 Requested convergence on RMS density matrix=1.00D-08 within 128 cycles.
 Requested convergence on MAX density matrix=1.00D-06.
 Requested convergence on             energy=1.00D-06.
 No special actions if energy rises.
 Inv3:  Mode=3 IEnd=        6666.
 Iteration    1 A*A^-1 deviation from unit magnitude is 6.88D-15 for   3324.
 Iteration    1 A*A^-1 deviation from orthogonality  is 3.30D-15 for   3315   1498.
 Iteration    1 A^-1*A deviation from unit magnitude is 6.88D-15 for   3324.
 Iteration    1 A^-1*A deviation from orthogonality  is 4.10D-15 for   3319   1437.
 Error on total polarization charges = -0.00047
 SCF Done:  E(RPM6D3) = -0.592496844111     A.U. after   19 cycles
            NFock= 18  Conv=0.73D-08     -V/T= 0.9930
 Range of M.O.s used for correlation:     1   113
 NBasis=   113 NAE=    65 NBE=    65 NFC=     0 NFV=     0
 NROrb=    113 NOA=    65 NOB=    65 NVA=    48 NVB=    48
 Symmetrizing basis deriv contribution to polar:
 IMax=3 JMax=2 DiffMx= 0.00D+00
 G2DrvN: will do    48 centers at a time, making    1 passes.
 Calling FoFCou, ICntrl=  3107 FMM=F I1Cent=   0 AccDes= 0.00D+00.
 NEqPCM:  Using equilibrium solvation (IEInf=0, Eps=  78.3553, EpsInf=   1.7778)
 G2PCM: DoFxE=T DoFxN=T DoGrad=T DoDP/DQ/DG/TGxP=FFFF NFrqRd=   0 IEInf=0 SqF1=F DoCFld=F IF1Alg=4.
 CoulSu:  requested number of processors reduced to:   3 ShMem   1 Linda.
 End of G2Drv F.D. properties file   721 does not exist.
 End of G2Drv F.D. properties file   722 does not exist.
 End of G2Drv F.D. properties file   788 does not exist.
          IDoAtm=11111111111111111111111111111111111111111111111
 NEqPCM:  Using equilibrium solvation (IEInf=0, Eps=  78.3553, EpsInf=   1.7778)
          Differentiating once with respect to electric field.
                with respect to dipole field.
          Differentiating once with respect to nuclear coordinates.
          Electric field/nuclear overlap derivatives assumed to be zero.
 Keep J ints in memory in canonical form, NReq=25625272.
          There are   144 degrees of freedom in the 1st order CPHF.  IDoFFX=5 NUNeed=   144.
 LinEq1:  Iter=  0 NonCon=   144 RMS=1.68D-01 Max=4.35D+00 NDo=   144
 AX will form    72 AO Fock derivatives at one time.
 LinEq1:  Iter=  1 NonCon=   144 RMS=2.48D-02 Max=6.23D-01 NDo=   144
 LinEq1:  Iter=  2 NonCon=   144 RMS=6.89D-03 Max=1.61D-01 NDo=   144
 LinEq1:  Iter=  3 NonCon=   144 RMS=1.28D-03 Max=2.99D-02 NDo=   144
 LinEq1:  Iter=  4 NonCon=   144 RMS=2.84D-04 Max=8.50D-03 NDo=   144
 LinEq1:  Iter=  5 NonCon=   144 RMS=4.94D-05 Max=9.74D-04 NDo=   144
 LinEq1:  Iter=  6 NonCon=   143 RMS=9.86D-06 Max=2.49D-04 NDo=   144
 LinEq1:  Iter=  7 NonCon=    95 RMS=1.86D-06 Max=3.56D-05 NDo=   144
 LinEq1:  Iter=  8 NonCon=    36 RMS=3.59D-07 Max=6.25D-06 NDo=   144
 LinEq1:  Iter=  9 NonCon=     3 RMS=7.33D-08 Max=1.30D-06 NDo=   144
 LinEq1:  Iter= 10 NonCon=     3 RMS=1.57D-08 Max=2.90D-07 NDo=   144
 LinEq1:  Iter= 11 NonCon=     0 RMS=2.64D-09 Max=3.29D-08 NDo=   144
 Linear equations converged to 1.000D-08 1.000D-07 after    11 iterations.
 Isotropic polarizability for W=    0.000000      218.00 Bohr**3.
 End of Minotr F.D. properties file   721 does not exist.
 End of Minotr F.D. properties file   722 does not exist.
 End of Minotr F.D. properties file   788 does not exist.

 **********************************************************************

            Population analysis using the SCF density.

 **********************************************************************

 Orbital symmetries:
       Occupied  (A) (A) (A) (A) (A) (A) (A) (A) (A) (A) (A) (A)
                 (A) (A) (A) (A) (A) (A) (A) (A) (A) (A) (A) (A)
                 (A) (A) (A) (A) (A) (A) (A) (A) (A) (A) (A) (A)
                 (A) (A) (A) (A) (A) (A) (A) (A) (A) (A) (A) (A)
                 (A) (A) (A) (A) (A) (A) (A) (A) (A) (A) (A) (A)
                 (A) (A) (A) (A) (A)
       Virtual   (A) (A) (A) (A) (A) (A) (A) (A) (A) (A) (A) (A)
                 (A) (A) (A) (A) (A) (A) (A) (A) (A) (A) (A) (A)
                 (A) (A) (A) (A) (A) (A) (A) (A) (A) (A) (A) (A)
                 (A) (A) (A) (A) (A) (A) (A) (A) (A) (A) (A) (A)
 The electronic state is 1-A.
 Alpha  occ. eigenvalues --   -1.23990  -1.19858  -1.19509  -1.16258  -1.14459
 Alpha  occ. eigenvalues --   -1.10755  -1.10346  -1.10247  -1.10132  -1.09253
 Alpha  occ. eigenvalues --   -1.04521  -1.02882  -1.00049  -0.96531  -0.90784
 Alpha  occ. eigenvalues --   -0.88926  -0.85620  -0.81952  -0.78265  -0.77555
 Alpha  occ. eigenvalues --   -0.74191  -0.71024  -0.69302  -0.69077  -0.68881
 Alpha  occ. eigenvalues --   -0.68125  -0.67224  -0.65365  -0.64508  -0.63449
 Alpha  occ. eigenvalues --   -0.62291  -0.60704  -0.60486  -0.58799  -0.57880
 Alpha  occ. eigenvalues --   -0.56696  -0.56201  -0.55088  -0.54767  -0.54057
 Alpha  occ. eigenvalues --   -0.53702  -0.53083  -0.52991  -0.52793  -0.52483
 Alpha  occ. eigenvalues --   -0.52270  -0.52035  -0.51186  -0.51043  -0.50700
 Alpha  occ. eigenvalues --   -0.49794  -0.48542  -0.48041  -0.46681  -0.44504
 Alpha  occ. eigenvalues --   -0.44400  -0.44328  -0.44208  -0.44153  -0.44032
 Alpha  occ. eigenvalues --   -0.43268  -0.40895  -0.39925  -0.38354  -0.34068
 Alpha virt. eigenvalues --   -0.06825  -0.02514   0.00146   0.01391   0.01911
 Alpha virt. eigenvalues --    0.02047   0.03273   0.05275   0.07771   0.08258
 Alpha virt. eigenvalues --    0.10244   0.10593   0.11309   0.11671   0.12067
 Alpha virt. eigenvalues --    0.13029   0.13895   0.14022   0.14297   0.15000
 Alpha virt. eigenvalues --    0.15350   0.15678   0.15703   0.16128   0.16669
 Alpha virt. eigenvalues --    0.16880   0.17449   0.17531   0.17645   0.17862
 Alpha virt. eigenvalues --    0.18165   0.18450   0.18477   0.18626   0.18942
 Alpha virt. eigenvalues --    0.19009   0.19273   0.19664   0.19939   0.21325
 Alpha virt. eigenvalues --    0.21400   0.21476   0.21777   0.22436   0.22508
 Alpha virt. eigenvalues --    0.22623   0.22727   0.23022
          Condensed to atoms (all electrons):
               1          2          3          4          5          6
     1  C    3.330922   0.000000   0.000000   0.000000   0.000000   0.000000
     2  C    0.000000   4.523933   0.000000   0.000000   0.000000   0.000000
     3  C    0.000000   0.000000   4.042308   0.000000   0.000000   0.000000
     4  C    0.000000   0.000000   0.000000   3.415544   0.000000   0.000000
     5  H    0.000000   0.000000   0.000000   0.000000   0.787259   0.000000
     6  H    0.000000   0.000000   0.000000   0.000000   0.000000   0.816197
     7  C    0.000000   0.000000   0.000000   0.000000   0.000000   0.000000
     8  H    0.000000   0.000000   0.000000   0.000000   0.000000   0.000000
     9  H    0.000000   0.000000   0.000000   0.000000   0.000000   0.000000
    10  H    0.000000   0.000000   0.000000   0.000000   0.000000   0.000000
    11  N    0.000000   0.000000   0.000000   0.000000   0.000000   0.000000
    12  O    0.000000   0.000000   0.000000   0.000000   0.000000   0.000000
    13  O    0.000000   0.000000   0.000000   0.000000   0.000000   0.000000
    14  C    0.000000   0.000000   0.000000   0.000000   0.000000   0.000000
    15  H    0.000000   0.000000   0.000000   0.000000   0.000000   0.000000
    16  C    0.000000   0.000000   0.000000   0.000000   0.000000   0.000000
    17  H    0.000000   0.000000   0.000000   0.000000   0.000000   0.000000
    18  C    0.000000   0.000000   0.000000   0.000000   0.000000   0.000000
    19  H    0.000000   0.000000   0.000000   0.000000   0.000000   0.000000
    20  C    0.000000   0.000000   0.000000   0.000000   0.000000   0.000000
    21  H    0.000000   0.000000   0.000000   0.000000   0.000000   0.000000
    22  H    0.000000   0.000000   0.000000   0.000000   0.000000   0.000000
    23  H    0.000000   0.000000   0.000000   0.000000   0.000000   0.000000
    24  C    0.000000   0.000000   0.000000   0.000000   0.000000   0.000000
    25  H    0.000000   0.000000   0.000000   0.000000   0.000000   0.000000
    26  C    0.000000   0.000000   0.000000   0.000000   0.000000   0.000000
    27  H    0.000000   0.000000   0.000000   0.000000   0.000000   0.000000
    28  H    0.000000   0.000000   0.000000   0.000000   0.000000   0.000000
    29  C    0.000000   0.000000   0.000000   0.000000   0.000000   0.000000
    30  C    0.000000   0.000000   0.000000   0.000000   0.000000   0.000000
    31  H    0.000000   0.000000   0.000000   0.000000   0.000000   0.000000
    32  H    0.000000   0.000000   0.000000   0.000000   0.000000   0.000000
    33  H    0.000000   0.000000   0.000000   0.000000   0.000000   0.000000
    34  O    0.000000   0.000000   0.000000   0.000000   0.000000   0.000000
    35  O    0.000000   0.000000   0.000000   0.000000   0.000000   0.000000
    36  H    0.000000   0.000000   0.000000   0.000000   0.000000   0.000000
    37  H    0.000000   0.000000   0.000000   0.000000   0.000000   0.000000
    38  H    0.000000   0.000000   0.000000   0.000000   0.000000   0.000000
    39  H    0.000000   0.000000   0.000000   0.000000   0.000000   0.000000
    40  O    0.000000   0.000000   0.000000   0.000000   0.000000   0.000000
    41  H    0.000000   0.000000   0.000000   0.000000   0.000000   0.000000
    42  O    0.000000   0.000000   0.000000   0.000000   0.000000   0.000000
    43  H    0.000000   0.000000   0.000000   0.000000   0.000000   0.000000
    44  O    0.000000   0.000000   0.000000   0.000000   0.000000   0.000000
    45  H    0.000000   0.000000   0.000000   0.000000   0.000000   0.000000
    46  O    0.000000   0.000000   0.000000   0.000000   0.000000   0.000000
    47  H    0.000000   0.000000   0.000000   0.000000   0.000000   0.000000
               7          8          9         10         11         12
     1  C    0.000000   0.000000   0.000000   0.000000   0.000000   0.000000
     2  C    0.000000   0.000000   0.000000   0.000000   0.000000   0.000000
     3  C    0.000000   0.000000   0.000000   0.000000   0.000000   0.000000
     4  C    0.000000   0.000000   0.000000   0.000000   0.000000   0.000000
     5  H    0.000000   0.000000   0.000000   0.000000   0.000000   0.000000
     6  H    0.000000   0.000000   0.000000   0.000000   0.000000   0.000000
     7  C    4.266083   0.000000   0.000000   0.000000   0.000000   0.000000
     8  H    0.000000   0.825374   0.000000   0.000000   0.000000   0.000000
     9  H    0.000000   0.000000   0.839321   0.000000   0.000000   0.000000
    10  H    0.000000   0.000000   0.000000   0.828593   0.000000   0.000000
    11  N    0.000000   0.000000   0.000000   0.000000   5.473386   0.000000
    12  O    0.000000   0.000000   0.000000   0.000000   0.000000   6.559789
    13  O    0.000000   0.000000   0.000000   0.000000   0.000000   0.000000
    14  C    0.000000   0.000000   0.000000   0.000000   0.000000   0.000000
    15  H    0.000000   0.000000   0.000000   0.000000   0.000000   0.000000
    16  C    0.000000   0.000000   0.000000   0.000000   0.000000   0.000000
    17  H    0.000000   0.000000   0.000000   0.000000   0.000000   0.000000
    18  C    0.000000   0.000000   0.000000   0.000000   0.000000   0.000000
    19  H    0.000000   0.000000   0.000000   0.000000   0.000000   0.000000
    20  C    0.000000   0.000000   0.000000   0.000000   0.000000   0.000000
    21  H    0.000000   0.000000   0.000000   0.000000   0.000000   0.000000
    22  H    0.000000   0.000000   0.000000   0.000000   0.000000   0.000000
    23  H    0.000000   0.000000   0.000000   0.000000   0.000000   0.000000
    24  C    0.000000   0.000000   0.000000   0.000000   0.000000   0.000000
    25  H    0.000000   0.000000   0.000000   0.000000   0.000000   0.000000
    26  C    0.000000   0.000000   0.000000   0.000000   0.000000   0.000000
    27  H    0.000000   0.000000   0.000000   0.000000   0.000000   0.000000
    28  H    0.000000   0.000000   0.000000   0.000000   0.000000   0.000000
    29  C    0.000000   0.000000   0.000000   0.000000   0.000000   0.000000
    30  C    0.000000   0.000000   0.000000   0.000000   0.000000   0.000000
    31  H    0.000000   0.000000   0.000000   0.000000   0.000000   0.000000
    32  H    0.000000   0.000000   0.000000   0.000000   0.000000   0.000000
    33  H    0.000000   0.000000   0.000000   0.000000   0.000000   0.000000
    34  O    0.000000   0.000000   0.000000   0.000000   0.000000   0.000000
    35  O    0.000000   0.000000   0.000000   0.000000   0.000000   0.000000
    36  H    0.000000   0.000000   0.000000   0.000000   0.000000   0.000000
    37  H    0.000000   0.000000   0.000000   0.000000   0.000000   0.000000
    38  H    0.000000   0.000000   0.000000   0.000000   0.000000   0.000000
    39  H    0.000000   0.000000   0.000000   0.000000   0.000000   0.000000
    40  O    0.000000   0.000000   0.000000   0.000000   0.000000   0.000000
    41  H    0.000000   0.000000   0.000000   0.000000   0.000000   0.000000
    42  O    0.000000   0.000000   0.000000   0.000000   0.000000   0.000000
    43  H    0.000000   0.000000   0.000000   0.000000   0.000000   0.000000
    44  O    0.000000   0.000000   0.000000   0.000000   0.000000   0.000000
    45  H    0.000000   0.000000   0.000000   0.000000   0.000000   0.000000
    46  O    0.000000   0.000000   0.000000   0.000000   0.000000   0.000000
    47  H    0.000000   0.000000   0.000000   0.000000   0.000000   0.000000
              13         14         15         16         17         18
     1  C    0.000000   0.000000   0.000000   0.000000   0.000000   0.000000
     2  C    0.000000   0.000000   0.000000   0.000000   0.000000   0.000000
     3  C    0.000000   0.000000   0.000000   0.000000   0.000000   0.000000
     4  C    0.000000   0.000000   0.000000   0.000000   0.000000   0.000000
     5  H    0.000000   0.000000   0.000000   0.000000   0.000000   0.000000
     6  H    0.000000   0.000000   0.000000   0.000000   0.000000   0.000000
     7  C    0.000000   0.000000   0.000000   0.000000   0.000000   0.000000
     8  H    0.000000   0.000000   0.000000   0.000000   0.000000   0.000000
     9  H    0.000000   0.000000   0.000000   0.000000   0.000000   0.000000
    10  H    0.000000   0.000000   0.000000   0.000000   0.000000   0.000000
    11  N    0.000000   0.000000   0.000000   0.000000   0.000000   0.000000
    12  O    0.000000   0.000000   0.000000   0.000000   0.000000   0.000000
    13  O    6.566399   0.000000   0.000000   0.000000   0.000000   0.000000
    14  C    0.000000   4.337056   0.000000   0.000000   0.000000   0.000000
    15  H    0.000000   0.000000   0.810409   0.000000   0.000000   0.000000
    16  C    0.000000   0.000000   0.000000   3.933751   0.000000   0.000000
    17  H    0.000000   0.000000   0.000000   0.000000   0.853405   0.000000
    18  C    0.000000   0.000000   0.000000   0.000000   0.000000   3.831749
    19  H    0.000000   0.000000   0.000000   0.000000   0.000000   0.000000
    20  C    0.000000   0.000000   0.000000   0.000000   0.000000   0.000000
    21  H    0.000000   0.000000   0.000000   0.000000   0.000000   0.000000
    22  H    0.000000   0.000000   0.000000   0.000000   0.000000   0.000000
    23  H    0.000000   0.000000   0.000000   0.000000   0.000000   0.000000
    24  C    0.000000   0.000000   0.000000   0.000000   0.000000   0.000000
    25  H    0.000000   0.000000   0.000000   0.000000   0.000000   0.000000
    26  C    0.000000   0.000000   0.000000   0.000000   0.000000   0.000000
    27  H    0.000000   0.000000   0.000000   0.000000   0.000000   0.000000
    28  H    0.000000   0.000000   0.000000   0.000000   0.000000   0.000000
    29  C    0.000000   0.000000   0.000000   0.000000   0.000000   0.000000
    30  C    0.000000   0.000000   0.000000   0.000000   0.000000   0.000000
    31  H    0.000000   0.000000   0.000000   0.000000   0.000000   0.000000
    32  H    0.000000   0.000000   0.000000   0.000000   0.000000   0.000000
    33  H    0.000000   0.000000   0.000000   0.000000   0.000000   0.000000
    34  O    0.000000   0.000000   0.000000   0.000000   0.000000   0.000000
    35  O    0.000000   0.000000   0.000000   0.000000   0.000000   0.000000
    36  H    0.000000   0.000000   0.000000   0.000000   0.000000   0.000000
    37  H    0.000000   0.000000   0.000000   0.000000   0.000000   0.000000
    38  H    0.000000   0.000000   0.000000   0.000000   0.000000   0.000000
    39  H    0.000000   0.000000   0.000000   0.000000   0.000000   0.000000
    40  O    0.000000   0.000000   0.000000   0.000000   0.000000   0.000000
    41  H    0.000000   0.000000   0.000000   0.000000   0.000000   0.000000
    42  O    0.000000   0.000000   0.000000   0.000000   0.000000   0.000000
    43  H    0.000000   0.000000   0.000000   0.000000   0.000000   0.000000
    44  O    0.000000   0.000000   0.000000   0.000000   0.000000   0.000000
    45  H    0.000000   0.000000   0.000000   0.000000   0.000000   0.000000
    46  O    0.000000   0.000000   0.000000   0.000000   0.000000   0.000000
    47  H    0.000000   0.000000   0.000000   0.000000   0.000000   0.000000
              19         20         21         22         23         24
     1  C    0.000000   0.000000   0.000000   0.000000   0.000000   0.000000
     2  C    0.000000   0.000000   0.000000   0.000000   0.000000   0.000000
     3  C    0.000000   0.000000   0.000000   0.000000   0.000000   0.000000
     4  C    0.000000   0.000000   0.000000   0.000000   0.000000   0.000000
     5  H    0.000000   0.000000   0.000000   0.000000   0.000000   0.000000
     6  H    0.000000   0.000000   0.000000   0.000000   0.000000   0.000000
     7  C    0.000000   0.000000   0.000000   0.000000   0.000000   0.000000
     8  H    0.000000   0.000000   0.000000   0.000000   0.000000   0.000000
     9  H    0.000000   0.000000   0.000000   0.000000   0.000000   0.000000
    10  H    0.000000   0.000000   0.000000   0.000000   0.000000   0.000000
    11  N    0.000000   0.000000   0.000000   0.000000   0.000000   0.000000
    12  O    0.000000   0.000000   0.000000   0.000000   0.000000   0.000000
    13  O    0.000000   0.000000   0.000000   0.000000   0.000000   0.000000
    14  C    0.000000   0.000000   0.000000   0.000000   0.000000   0.000000
    15  H    0.000000   0.000000   0.000000   0.000000   0.000000   0.000000
    16  C    0.000000   0.000000   0.000000   0.000000   0.000000   0.000000
    17  H    0.000000   0.000000   0.000000   0.000000   0.000000   0.000000
    18  C    0.000000   0.000000   0.000000   0.000000   0.000000   0.000000
    19  H    0.858450   0.000000   0.000000   0.000000   0.000000   0.000000
    20  C    0.000000   4.548403   0.000000   0.000000   0.000000   0.000000
    21  H    0.000000   0.000000   0.811552   0.000000   0.000000   0.000000
    22  H    0.000000   0.000000   0.000000   0.812221   0.000000   0.000000
    23  H    0.000000   0.000000   0.000000   0.000000   0.796072   0.000000
    24  C    0.000000   0.000000   0.000000   0.000000   0.000000   4.293225
    25  H    0.000000   0.000000   0.000000   0.000000   0.000000   0.000000
    26  C    0.000000   0.000000   0.000000   0.000000   0.000000   0.000000
    27  H    0.000000   0.000000   0.000000   0.000000   0.000000   0.000000
    28  H    0.000000   0.000000   0.000000   0.000000   0.000000   0.000000
    29  C    0.000000   0.000000   0.000000   0.000000   0.000000   0.000000
    30  C    0.000000   0.000000   0.000000   0.000000   0.000000   0.000000
    31  H    0.000000   0.000000   0.000000   0.000000   0.000000   0.000000
    32  H    0.000000   0.000000   0.000000   0.000000   0.000000   0.000000
    33  H    0.000000   0.000000   0.000000   0.000000   0.000000   0.000000
    34  O    0.000000   0.000000   0.000000   0.000000   0.000000   0.000000
    35  O    0.000000   0.000000   0.000000   0.000000   0.000000   0.000000
    36  H    0.000000   0.000000   0.000000   0.000000   0.000000   0.000000
    37  H    0.000000   0.000000   0.000000   0.000000   0.000000   0.000000
    38  H    0.000000   0.000000   0.000000   0.000000   0.000000   0.000000
    39  H    0.000000   0.000000   0.000000   0.000000   0.000000   0.000000
    40  O    0.000000   0.000000   0.000000   0.000000   0.000000   0.000000
    41  H    0.000000   0.000000   0.000000   0.000000   0.000000   0.000000
    42  O    0.000000   0.000000   0.000000   0.000000   0.000000   0.000000
    43  H    0.000000   0.000000   0.000000   0.000000   0.000000   0.000000
    44  O    0.000000   0.000000   0.000000   0.000000   0.000000   0.000000
    45  H    0.000000   0.000000   0.000000   0.000000   0.000000   0.000000
    46  O    0.000000   0.000000   0.000000   0.000000   0.000000   0.000000
    47  H    0.000000   0.000000   0.000000   0.000000   0.000000   0.000000
              25         26         27         28         29         30
     1  C    0.000000   0.000000   0.000000   0.000000   0.000000   0.000000
     2  C    0.000000   0.000000   0.000000   0.000000   0.000000   0.000000
     3  C    0.000000   0.000000   0.000000   0.000000   0.000000   0.000000
     4  C    0.000000   0.000000   0.000000   0.000000   0.000000   0.000000
     5  H    0.000000   0.000000   0.000000   0.000000   0.000000   0.000000
     6  H    0.000000   0.000000   0.000000   0.000000   0.000000   0.000000
     7  C    0.000000   0.000000   0.000000   0.000000   0.000000   0.000000
     8  H    0.000000   0.000000   0.000000   0.000000   0.000000   0.000000
     9  H    0.000000   0.000000   0.000000   0.000000   0.000000   0.000000
    10  H    0.000000   0.000000   0.000000   0.000000   0.000000   0.000000
    11  N    0.000000   0.000000   0.000000   0.000000   0.000000   0.000000
    12  O    0.000000   0.000000   0.000000   0.000000   0.000000   0.000000
    13  O    0.000000   0.000000   0.000000   0.000000   0.000000   0.000000
    14  C    0.000000   0.000000   0.000000   0.000000   0.000000   0.000000
    15  H    0.000000   0.000000   0.000000   0.000000   0.000000   0.000000
    16  C    0.000000   0.000000   0.000000   0.000000   0.000000   0.000000
    17  H    0.000000   0.000000   0.000000   0.000000   0.000000   0.000000
    18  C    0.000000   0.000000   0.000000   0.000000   0.000000   0.000000
    19  H    0.000000   0.000000   0.000000   0.000000   0.000000   0.000000
    20  C    0.000000   0.000000   0.000000   0.000000   0.000000   0.000000
    21  H    0.000000   0.000000   0.000000   0.000000   0.000000   0.000000
    22  H    0.000000   0.000000   0.000000   0.000000   0.000000   0.000000
    23  H    0.000000   0.000000   0.000000   0.000000   0.000000   0.000000
    24  C    0.000000   0.000000   0.000000   0.000000   0.000000   0.000000
    25  H    0.809262   0.000000   0.000000   0.000000   0.000000   0.000000
    26  C    0.000000   3.987168   0.000000   0.000000   0.000000   0.000000
    27  H    0.000000   0.000000   0.836808   0.000000   0.000000   0.000000
    28  H    0.000000   0.000000   0.000000   0.837080   0.000000   0.000000
    29  C    0.000000   0.000000   0.000000   0.000000   3.268522   0.000000
    30  C    0.000000   0.000000   0.000000   0.000000   0.000000   4.655700
    31  H    0.000000   0.000000   0.000000   0.000000   0.000000   0.000000
    32  H    0.000000   0.000000   0.000000   0.000000   0.000000   0.000000
    33  H    0.000000   0.000000   0.000000   0.000000   0.000000   0.000000
    34  O    0.000000   0.000000   0.000000   0.000000   0.000000   0.000000
    35  O    0.000000   0.000000   0.000000   0.000000   0.000000   0.000000
    36  H    0.000000   0.000000   0.000000   0.000000   0.000000   0.000000
    37  H    0.000000   0.000000   0.000000   0.000000   0.000000   0.000000
    38  H    0.000000   0.000000   0.000000   0.000000   0.000000   0.000000
    39  H    0.000000   0.000000   0.000000   0.000000   0.000000   0.000000
    40  O    0.000000   0.000000   0.000000   0.000000   0.000000   0.000000
    41  H    0.000000   0.000000   0.000000   0.000000   0.000000   0.000000
    42  O    0.000000   0.000000   0.000000   0.000000   0.000000   0.000000
    43  H    0.000000   0.000000   0.000000   0.000000   0.000000   0.000000
    44  O    0.000000   0.000000   0.000000   0.000000   0.000000   0.000000
    45  H    0.000000   0.000000   0.000000   0.000000   0.000000   0.000000
    46  O    0.000000   0.000000   0.000000   0.000000   0.000000   0.000000
    47  H    0.000000   0.000000   0.000000   0.000000   0.000000   0.000000
              31         32         33         34         35         36
     1  C    0.000000   0.000000   0.000000   0.000000   0.000000   0.000000
     2  C    0.000000   0.000000   0.000000   0.000000   0.000000   0.000000
     3  C    0.000000   0.000000   0.000000   0.000000   0.000000   0.000000
     4  C    0.000000   0.000000   0.000000   0.000000   0.000000   0.000000
     5  H    0.000000   0.000000   0.000000   0.000000   0.000000   0.000000
     6  H    0.000000   0.000000   0.000000   0.000000   0.000000   0.000000
     7  C    0.000000   0.000000   0.000000   0.000000   0.000000   0.000000
     8  H    0.000000   0.000000   0.000000   0.000000   0.000000   0.000000
     9  H    0.000000   0.000000   0.000000   0.000000   0.000000   0.000000
    10  H    0.000000   0.000000   0.000000   0.000000   0.000000   0.000000
    11  N    0.000000   0.000000   0.000000   0.000000   0.000000   0.000000
    12  O    0.000000   0.000000   0.000000   0.000000   0.000000   0.000000
    13  O    0.000000   0.000000   0.000000   0.000000   0.000000   0.000000
    14  C    0.000000   0.000000   0.000000   0.000000   0.000000   0.000000
    15  H    0.000000   0.000000   0.000000   0.000000   0.000000   0.000000
    16  C    0.000000   0.000000   0.000000   0.000000   0.000000   0.000000
    17  H    0.000000   0.000000   0.000000   0.000000   0.000000   0.000000
    18  C    0.000000   0.000000   0.000000   0.000000   0.000000   0.000000
    19  H    0.000000   0.000000   0.000000   0.000000   0.000000   0.000000
    20  C    0.000000   0.000000   0.000000   0.000000   0.000000   0.000000
    21  H    0.000000   0.000000   0.000000   0.000000   0.000000   0.000000
    22  H    0.000000   0.000000   0.000000   0.000000   0.000000   0.000000
    23  H    0.000000   0.000000   0.000000   0.000000   0.000000   0.000000
    24  C    0.000000   0.000000   0.000000   0.000000   0.000000   0.000000
    25  H    0.000000   0.000000   0.000000   0.000000   0.000000   0.000000
    26  C    0.000000   0.000000   0.000000   0.000000   0.000000   0.000000
    27  H    0.000000   0.000000   0.000000   0.000000   0.000000   0.000000
    28  H    0.000000   0.000000   0.000000   0.000000   0.000000   0.000000
    29  C    0.000000   0.000000   0.000000   0.000000   0.000000   0.000000
    30  C    0.000000   0.000000   0.000000   0.000000   0.000000   0.000000
    31  H    0.770737   0.000000   0.000000   0.000000   0.000000   0.000000
    32  H    0.000000   0.771382   0.000000   0.000000   0.000000   0.000000
    33  H    0.000000   0.000000   0.760394   0.000000   0.000000   0.000000
    34  O    0.000000   0.000000   0.000000   6.504166   0.000000   0.000000
    35  O    0.000000   0.000000   0.000000   0.000000   6.575825   0.000000
    36  H    0.000000   0.000000   0.000000   0.000000   0.000000   0.660257
    37  H    0.000000   0.000000   0.000000   0.000000   0.000000   0.000000
    38  H    0.000000   0.000000   0.000000   0.000000   0.000000   0.000000
    39  H    0.000000   0.000000   0.000000   0.000000   0.000000   0.000000
    40  O    0.000000   0.000000   0.000000   0.000000   0.000000   0.000000
    41  H    0.000000   0.000000   0.000000   0.000000   0.000000   0.000000
    42  O    0.000000   0.000000   0.000000   0.000000   0.000000   0.000000
    43  H    0.000000   0.000000   0.000000   0.000000   0.000000   0.000000
    44  O    0.000000   0.000000   0.000000   0.000000   0.000000   0.000000
    45  H    0.000000   0.000000   0.000000   0.000000   0.000000   0.000000
    46  O    0.000000   0.000000   0.000000   0.000000   0.000000   0.000000
    47  H    0.000000   0.000000   0.000000   0.000000   0.000000   0.000000
              37         38         39         40         41         42
     1  C    0.000000   0.000000   0.000000   0.000000   0.000000   0.000000
     2  C    0.000000   0.000000   0.000000   0.000000   0.000000   0.000000
     3  C    0.000000   0.000000   0.000000   0.000000   0.000000   0.000000
     4  C    0.000000   0.000000   0.000000   0.000000   0.000000   0.000000
     5  H    0.000000   0.000000   0.000000   0.000000   0.000000   0.000000
     6  H    0.000000   0.000000   0.000000   0.000000   0.000000   0.000000
     7  C    0.000000   0.000000   0.000000   0.000000   0.000000   0.000000
     8  H    0.000000   0.000000   0.000000   0.000000   0.000000   0.000000
     9  H    0.000000   0.000000   0.000000   0.000000   0.000000   0.000000
    10  H    0.000000   0.000000   0.000000   0.000000   0.000000   0.000000
    11  N    0.000000   0.000000   0.000000   0.000000   0.000000   0.000000
    12  O    0.000000   0.000000   0.000000   0.000000   0.000000   0.000000
    13  O    0.000000   0.000000   0.000000   0.000000   0.000000   0.000000
    14  C    0.000000   0.000000   0.000000   0.000000   0.000000   0.000000
    15  H    0.000000   0.000000   0.000000   0.000000   0.000000   0.000000
    16  C    0.000000   0.000000   0.000000   0.000000   0.000000   0.000000
    17  H    0.000000   0.000000   0.000000   0.000000   0.000000   0.000000
    18  C    0.000000   0.000000   0.000000   0.000000   0.000000   0.000000
    19  H    0.000000   0.000000   0.000000   0.000000   0.000000   0.000000
    20  C    0.000000   0.000000   0.000000   0.000000   0.000000   0.000000
    21  H    0.000000   0.000000   0.000000   0.000000   0.000000   0.000000
    22  H    0.000000   0.000000   0.000000   0.000000   0.000000   0.000000
    23  H    0.000000   0.000000   0.000000   0.000000   0.000000   0.000000
    24  C    0.000000   0.000000   0.000000   0.000000   0.000000   0.000000
    25  H    0.000000   0.000000   0.000000   0.000000   0.000000   0.000000
    26  C    0.000000   0.000000   0.000000   0.000000   0.000000   0.000000
    27  H    0.000000   0.000000   0.000000   0.000000   0.000000   0.000000
    28  H    0.000000   0.000000   0.000000   0.000000   0.000000   0.000000
    29  C    0.000000   0.000000   0.000000   0.000000   0.000000   0.000000
    30  C    0.000000   0.000000   0.000000   0.000000   0.000000   0.000000
    31  H    0.000000   0.000000   0.000000   0.000000   0.000000   0.000000
    32  H    0.000000   0.000000   0.000000   0.000000   0.000000   0.000000
    33  H    0.000000   0.000000   0.000000   0.000000   0.000000   0.000000
    34  O    0.000000   0.000000   0.000000   0.000000   0.000000   0.000000
    35  O    0.000000   0.000000   0.000000   0.000000   0.000000   0.000000
    36  H    0.000000   0.000000   0.000000   0.000000   0.000000   0.000000
    37  H    0.658166   0.000000   0.000000   0.000000   0.000000   0.000000
    38  H    0.000000   0.658920   0.000000   0.000000   0.000000   0.000000
    39  H    0.000000   0.000000   0.660114   0.000000   0.000000   0.000000
    40  O    0.000000   0.000000   0.000000   6.691833   0.000000   0.000000
    41  H    0.000000   0.000000   0.000000   0.000000   0.673060   0.000000
    42  O    0.000000   0.000000   0.000000   0.000000   0.000000   6.679226
    43  H    0.000000   0.000000   0.000000   0.000000   0.000000   0.000000
    44  O    0.000000   0.000000   0.000000   0.000000   0.000000   0.000000
    45  H    0.000000   0.000000   0.000000   0.000000   0.000000   0.000000
    46  O    0.000000   0.000000   0.000000   0.000000   0.000000   0.000000
    47  H    0.000000   0.000000   0.000000   0.000000   0.000000   0.000000
              43         44         45         46         47
     1  C    0.000000   0.000000   0.000000   0.000000   0.000000
     2  C    0.000000   0.000000   0.000000   0.000000   0.000000
     3  C    0.000000   0.000000   0.000000   0.000000   0.000000
     4  C    0.000000   0.000000   0.000000   0.000000   0.000000
     5  H    0.000000   0.000000   0.000000   0.000000   0.000000
     6  H    0.000000   0.000000   0.000000   0.000000   0.000000
     7  C    0.000000   0.000000   0.000000   0.000000   0.000000
     8  H    0.000000   0.000000   0.000000   0.000000   0.000000
     9  H    0.000000   0.000000   0.000000   0.000000   0.000000
    10  H    0.000000   0.000000   0.000000   0.000000   0.000000
    11  N    0.000000   0.000000   0.000000   0.000000   0.000000
    12  O    0.000000   0.000000   0.000000   0.000000   0.000000
    13  O    0.000000   0.000000   0.000000   0.000000   0.000000
    14  C    0.000000   0.000000   0.000000   0.000000   0.000000
    15  H    0.000000   0.000000   0.000000   0.000000   0.000000
    16  C    0.000000   0.000000   0.000000   0.000000   0.000000
    17  H    0.000000   0.000000   0.000000   0.000000   0.000000
    18  C    0.000000   0.000000   0.000000   0.000000   0.000000
    19  H    0.000000   0.000000   0.000000   0.000000   0.000000
    20  C    0.000000   0.000000   0.000000   0.000000   0.000000
    21  H    0.000000   0.000000   0.000000   0.000000   0.000000
    22  H    0.000000   0.000000   0.000000   0.000000   0.000000
    23  H    0.000000   0.000000   0.000000   0.000000   0.000000
    24  C    0.000000   0.000000   0.000000   0.000000   0.000000
    25  H    0.000000   0.000000   0.000000   0.000000   0.000000
    26  C    0.000000   0.000000   0.000000   0.000000   0.000000
    27  H    0.000000   0.000000   0.000000   0.000000   0.000000
    28  H    0.000000   0.000000   0.000000   0.000000   0.000000
    29  C    0.000000   0.000000   0.000000   0.000000   0.000000
    30  C    0.000000   0.000000   0.000000   0.000000   0.000000
    31  H    0.000000   0.000000   0.000000   0.000000   0.000000
    32  H    0.000000   0.000000   0.000000   0.000000   0.000000
    33  H    0.000000   0.000000   0.000000   0.000000   0.000000
    34  O    0.000000   0.000000   0.000000   0.000000   0.000000
    35  O    0.000000   0.000000   0.000000   0.000000   0.000000
    36  H    0.000000   0.000000   0.000000   0.000000   0.000000
    37  H    0.000000   0.000000   0.000000   0.000000   0.000000
    38  H    0.000000   0.000000   0.000000   0.000000   0.000000
    39  H    0.000000   0.000000   0.000000   0.000000   0.000000
    40  O    0.000000   0.000000   0.000000   0.000000   0.000000
    41  H    0.000000   0.000000   0.000000   0.000000   0.000000
    42  O    0.000000   0.000000   0.000000   0.000000   0.000000
    43  H    0.671416   0.000000   0.000000   0.000000   0.000000
    44  O    0.000000   6.683816   0.000000   0.000000   0.000000
    45  H    0.000000   0.000000   0.672180   0.000000   0.000000
    46  O    0.000000   0.000000   0.000000   6.681357   0.000000
    47  H    0.000000   0.000000   0.000000   0.000000   0.671214
 Mulliken charges:
               1
     1  C    0.669078
     2  C   -0.523933
     3  C   -0.042308
     4  C    0.584456
     5  H    0.212741
     6  H    0.183803
     7  C   -0.266083
     8  H    0.174626
     9  H    0.160679
    10  H    0.171407
    11  N   -0.473386
    12  O   -0.559789
    13  O   -0.566399
    14  C   -0.337056
    15  H    0.189591
    16  C    0.066249
    17  H    0.146595
    18  C    0.168251
    19  H    0.141550
    20  C   -0.548403
    21  H    0.188448
    22  H    0.187779
    23  H    0.203928
    24  C   -0.293225
    25  H    0.190738
    26  C    0.012832
    27  H    0.163192
    28  H    0.162920
    29  C    0.731478
    30  C   -0.655700
    31  H    0.229263
    32  H    0.228618
    33  H    0.239606
    34  O   -0.504166
    35  O   -0.575825
    36  H    0.339743
    37  H    0.341834
    38  H    0.341080
    39  H    0.339886
    40  O   -0.691833
    41  H    0.326940
    42  O   -0.679226
    43  H    0.328584
    44  O   -0.683816
    45  H    0.327820
    46  O   -0.681357
    47  H    0.328786
 Sum of Mulliken charges =   0.00000
 Mulliken charges with hydrogens summed into heavy atoms:
               1
     1  C    0.669078
     2  C   -0.311192
     3  C    0.141496
     4  C    0.584456
     7  C    0.240630
    11  N   -0.473386
    12  O   -0.559789
    13  O   -0.566399
    14  C   -0.147464
    16  C    0.212844
    18  C    0.309802
    20  C    0.031752
    24  C   -0.102488
    26  C    0.338944
    29  C    0.731478
    30  C    0.041788
    34  O   -0.504166
    35  O   -0.575825
    40  O   -0.023813
    42  O   -0.010755
    44  O   -0.014161
    46  O   -0.012828
 APT charges:
               1
     1  C    2.524653
     2  C   -1.285965
     3  C    0.634791
     4  C    1.848491
     5  H    0.249456
     6  H    0.114801
     7  C   -0.334526
     8  H    0.216695
     9  H    0.189432
    10  H    0.215935
    11  N   -1.528084
    12  O   -1.339738
    13  O   -1.387833
    14  C   -0.935750
    15  H    0.299957
    16  C    0.685570
    17  H    0.235418
    18  C    0.612910
    19  H    0.101813
    20  C   -1.104436
    21  H    0.272157
    22  H    0.277094
    23  H    0.324843
    24  C   -1.532798
    25  H    0.270299
    26  C    0.384672
    27  H    0.151687
    28  H    0.192429
    29  C    2.084775
    30  C   -1.239589
    31  H    0.340291
    32  H    0.331569
    33  H    0.393826
    34  O   -1.248501
    35  O   -1.282140
    36  H    0.533792
    37  H    0.550075
    38  H    0.469373
    39  H    0.500784
    40  O   -0.851441
    41  H    0.460050
    42  O   -0.838690
    43  H    0.389508
    44  O   -0.869577
    45  H    0.387331
    46  O   -0.862888
    47  H    0.397470
 Sum of APT charges =  -0.00001
 APT charges with hydrogens summed into heavy atoms:
               1
     1  C    2.524653
     2  C   -1.036509
     3  C    0.749592
     4  C    1.848491
     7  C    0.287536
    11  N   -1.528084
    12  O   -1.339738
    13  O   -1.387833
    14  C   -0.635793
    16  C    0.920988
    18  C    0.714723
    20  C   -0.230342
    24  C   -1.262499
    26  C    0.728787
    29  C    2.084775
    30  C   -0.173904
    34  O   -1.248501
    35  O   -1.282140
    40  O    0.077982
    42  O    0.051601
    44  O    0.067828
    46  O    0.068374
 Charge=              0.0000 electrons
 Dipole moment (field-independent basis, Debye):
    X=              2.0516    Y=              0.1046    Z=             -8.5431  Tot=              8.7866
 N-N= 1.193442256903D+03 E-N=-2.212800809818D+03  KE=-8.502933382575D+01
  Exact polarizability: 272.219 -14.518 228.556   5.835  33.800 153.212
 Approx polarizability: 157.352  -6.138 119.525   6.066   3.938  82.560
 D2PCM: C-PCM CHGder 2nd derivatives, FixD1E=F FixD2E=F DoIter=F DoCFld=F I1PDM=0
 CoulSu:  requested number of processors reduced to:   3 ShMem   1 Linda.
 Calling FoFJK, ICntrl=    100127 FMM=F ISym2X=0 I1Cent= 0 IOpClX= 0 NMat=1 NMatS=1 NMatT=0.
 Full mass-weighted force constant matrix:
 Low frequencies --- -785.8757   -0.3197   -0.0654   -0.0617    2.0676    4.4300
 Low frequencies ---    7.8056   14.1397   17.3111
 ******    1 imaginary frequencies (negative Signs) ****** 
 Diagonal vibrational polarizability:
     1164.8837894     798.7659808    1612.3664108
 Harmonic frequencies (cm**-1), IR intensities (KM/Mole), Raman scattering
 activities (A**4/AMU), depolarization ratios for plane and unpolarized
 incident light, reduced masses (AMU), force constants (mDyne/A),
 and normal coordinates:
                      1                      2                      3
                      A                      A                      A
 Frequencies --   -785.8757                13.8105                17.2250
 Red. masses --      7.6770                 5.6781                 5.5115
 Frc consts  --      2.7935                 0.0006                 0.0010
 IR Inten    --   2367.6686                 3.7025                 0.1749
  Atom  AN      X      Y      Z        X      Y      Z        X      Y      Z
     1   6     0.04   0.09  -0.02     0.01  -0.01  -0.04     0.00  -0.02   0.04
     2   6    -0.13   0.02   0.16     0.02  -0.02  -0.02     0.02  -0.04   0.00
     3   6     0.10   0.11   0.47     0.02  -0.04  -0.02     0.01  -0.05   0.02
     4   6    -0.01   0.00   0.02     0.00  -0.04  -0.03    -0.02  -0.04   0.09
     5   1     0.10  -0.09  -0.14     0.03  -0.01  -0.02     0.04  -0.06  -0.05
     6   1    -0.08  -0.16  -0.34     0.02  -0.04  -0.01     0.02  -0.08   0.02
     7   6     0.01   0.01  -0.01    -0.01  -0.02  -0.04    -0.06   0.00   0.15
     8   1     0.00   0.00  -0.01    -0.17   0.04   0.09     0.09  -0.05   0.02
     9   1     0.00   0.00   0.00     0.18  -0.07   0.02    -0.27   0.02   0.10
    10   1     0.01   0.03  -0.01    -0.06  -0.02  -0.26    -0.01   0.04   0.37
    11   7     0.03   0.01   0.00     0.00  -0.02  -0.04    -0.03  -0.02   0.09
    12   8     0.01  -0.02   0.00    -0.01  -0.05  -0.02    -0.03  -0.04   0.13
    13   8     0.00  -0.01   0.00     0.01   0.00  -0.05     0.00  -0.01   0.03
    14   6     0.10   0.03   0.01     0.03  -0.05   0.00     0.03   0.04  -0.09
    15   1    -0.05   0.05   0.14     0.03  -0.04   0.01     0.04   0.03  -0.14
    16   6    -0.09   0.08  -0.05     0.03  -0.05   0.01     0.02   0.03  -0.05
    17   1     0.03  -0.02   0.17     0.03  -0.06   0.02     0.03   0.02  -0.06
    18   6     0.00  -0.09  -0.09     0.03  -0.04  -0.02     0.02   0.05  -0.07
    19   1    -0.01  -0.01   0.12     0.02  -0.04  -0.03     0.00   0.07  -0.02
    20   6     0.04  -0.02  -0.02     0.03  -0.03  -0.03     0.03   0.05  -0.12
    21   1    -0.04   0.01   0.00     0.03  -0.02  -0.04     0.03   0.04  -0.10
    22   1    -0.01   0.02   0.00     0.04  -0.02  -0.01     0.05   0.02  -0.15
    23   1     0.06  -0.02   0.02     0.02  -0.04  -0.03     0.02   0.08  -0.14
    24   6    -0.07  -0.22  -0.45     0.02  -0.05  -0.01     0.00   0.03   0.01
    25   1     0.03   0.08   0.27     0.02  -0.06  -0.02    -0.01   0.05   0.03
    26   6    -0.03   0.00  -0.04     0.02  -0.06  -0.01     0.00   0.03   0.03
    27   1    -0.18   0.08  -0.03     0.00  -0.11   0.01    -0.02   0.02   0.04
    28   1     0.05   0.00   0.04     0.03  -0.06  -0.06     0.00   0.03   0.03
    29   6     0.00   0.00   0.00     0.01   0.02  -0.02    -0.01   0.04   0.03
    30   6     0.00   0.00   0.00    -0.03   0.01  -0.14    -0.06   0.02  -0.05
    31   1     0.00   0.00   0.00     0.02  -0.07  -0.18     0.00  -0.03  -0.09
    32   1     0.00   0.00   0.00    -0.08   0.04  -0.20    -0.12   0.02  -0.11
    33   1    -0.01   0.00   0.00    -0.05   0.03  -0.13    -0.09   0.06  -0.01
    34   8     0.00   0.00   0.01     0.03  -0.01   0.04     0.02   0.04   0.06
    35   8     0.00   0.00   0.00     0.02   0.07   0.04     0.02   0.06   0.07
    36   1     0.05   0.00   0.02     0.03   0.01  -0.05     0.04  -0.05  -0.07
    37   1    -0.03   0.03   0.01    -0.10   0.03   0.23     0.01  -0.11  -0.09
    38   1     0.01   0.01  -0.01     0.07   0.08   0.14     0.11   0.09   0.12
    39   1     0.00   0.00   0.00    -0.05   0.12  -0.08    -0.09   0.05  -0.05
    40   8     0.00   0.00   0.00     0.07   0.06   0.18     0.12   0.09   0.14
    41   1     0.04   0.01   0.01     0.05   0.01   0.13     0.08   0.06   0.10
    42   8     0.00   0.00   0.00    -0.12   0.12  -0.18    -0.17   0.04  -0.15
    43   1     0.00   0.00   0.00    -0.10   0.16  -0.14    -0.14   0.05  -0.11
    44   8     0.00   0.00   0.00    -0.16   0.10   0.34     0.03  -0.18  -0.21
    45   1     0.00   0.01   0.00    -0.16   0.15   0.34     0.04  -0.27  -0.22
    46   8     0.00   0.00   0.00     0.04   0.02  -0.04     0.06  -0.07  -0.10
    47   1     0.00  -0.02   0.01     0.04   0.02  -0.05     0.06  -0.05  -0.12
                      4                      5                      6
                      A                      A                      A
 Frequencies --     23.8289                29.8983                38.4683
 Red. masses --      6.5371                 6.6444                 6.6826
 Frc consts  --      0.0022                 0.0035                 0.0058
 IR Inten    --      3.8561                 0.7425                 9.2058
  Atom  AN      X      Y      Z        X      Y      Z        X      Y      Z
     1   6    -0.06  -0.03   0.04     0.00   0.00   0.03     0.04   0.02  -0.03
     2   6    -0.05  -0.04  -0.02     0.03  -0.01   0.04     0.05   0.01  -0.02
     3   6    -0.05  -0.04  -0.05     0.02  -0.05   0.05     0.04  -0.01   0.00
     4   6    -0.05  -0.04  -0.02    -0.02  -0.04   0.07     0.02  -0.01  -0.01
     5   1    -0.06  -0.05  -0.03     0.06  -0.01   0.02     0.07   0.01  -0.02
     6   1    -0.05  -0.06  -0.08     0.03  -0.07   0.05     0.06  -0.02   0.02
     7   6    -0.08  -0.02   0.09    -0.07   0.00   0.06     0.00   0.01  -0.06
     8   1    -0.03  -0.01   0.07    -0.08  -0.01   0.06    -0.08   0.01  -0.01
     9   1    -0.15  -0.03   0.09    -0.10   0.00   0.06     0.09   0.00  -0.04
    10   1    -0.06   0.01   0.16    -0.07   0.03   0.08    -0.02   0.01  -0.17
    11   7    -0.07  -0.03   0.04    -0.03  -0.01   0.05     0.02   0.00  -0.03
    12   8    -0.05  -0.04  -0.04    -0.04  -0.06   0.10     0.01  -0.03  -0.01
    13   8    -0.07  -0.02   0.09     0.00   0.03   0.00     0.04   0.03  -0.02
    14   6     0.03   0.02  -0.07     0.02  -0.03   0.03     0.07   0.03  -0.02
    15   1     0.05   0.02  -0.10     0.02  -0.04   0.03     0.12   0.04  -0.02
    16   6     0.03  -0.01  -0.09     0.02  -0.03   0.04     0.06  -0.02   0.00
    17   1     0.04  -0.02  -0.12     0.02  -0.03   0.04     0.08  -0.05   0.02
    18   6     0.01   0.05  -0.02     0.03  -0.04   0.02     0.04   0.08  -0.03
    19   1     0.00   0.06   0.00     0.03  -0.04   0.03    -0.01   0.07  -0.04
    20   6     0.01   0.07   0.00     0.03  -0.05   0.00     0.06   0.14  -0.05
    21   1    -0.03   0.07   0.05     0.06  -0.04  -0.06    -0.01   0.15   0.03
    22   1     0.01   0.04  -0.03     0.04  -0.01   0.04     0.11   0.08  -0.11
    23   1     0.05   0.12   0.00     0.00  -0.11   0.00     0.10   0.25  -0.07
    24   6     0.00  -0.01  -0.07     0.03  -0.03   0.05     0.01  -0.03   0.01
    25   1    -0.01   0.01  -0.04     0.04  -0.03   0.06    -0.02  -0.01  -0.01
    26   6     0.00  -0.04  -0.08     0.03  -0.02   0.03    -0.01  -0.07   0.05
    27   1     0.00  -0.06  -0.07     0.04  -0.02   0.03    -0.05  -0.13   0.08
    28   1    -0.02  -0.04  -0.10     0.04  -0.02   0.02    -0.02  -0.07   0.00
    29   6     0.01  -0.01  -0.07    -0.02   0.02  -0.03     0.06   0.00   0.13
[...]
 ,0.00000270,-0.00001011,-0.00000177,0.00000844,-0.00000190,0.00001511,
 -0.00001207,-0.00001243,-0.00001923,0.00001262,0.00001863,0.00000331,-
 0.00001695,-0.00000667,0.00000310,0.00000683,0.10053315,-0.00136365,0.
 00130712,-0.00060230,-0.00036332,-0.00051761,0.00015380,0.00068294,-0.
 00017351,0.00054463,-0.00408792,0.00153542,-0.00089050,0.00000492,0.00
 004571,-0.00006291,0.00012757,-0.00000558,-0.00012288,0.00170520,-0.00
 041808,0.00091743,0.00074479,-0.00047604,-0.00028513,-0.00011652,-0.00
 014988,-0.00029644,-0.00024299,-0.00006003,0.00007339,0.00154425,-0.00
 068221,0.00053732,0.00240823,-0.00882641,0.00331865,0.00079906,-0.0001
 1906,0.00021920,0.00046905,0.00000873,-0.00001108,-0.00001199,0.000062
 92,0.00001292,-0.00042378,0.00045003,-0.00006441,0.00004035,0.00004743
 ,0.00003754,-0.00031907,-0.00009822,0.00000496,-0.00000216,-0.00002930
 ,0.00004966,0.00018684,-0.00008051,-0.00006026,-0.00004035,-0.00000620
 ,0.00001891,-0.00001796,0.00003685,-0.00000736,-0.00001861,0.00001251,
 0.00003282,0.00004901,-0.00062079,-0.00055393,-0.00001207,0.00000673,0
 .00018984,0.00001722,0.00002296,-0.00003665,-0.00000303,-0.00001848,0.
 00004159,0.00003725,-0.00002068,0.00009058,0.00016756,0.00004324,-0.00
 008259,-0.00012639,0.00002686,-0.00005487,-0.00000117,-0.00003694,0.00
 004184,0.00001115,-0.00001466,-0.00000837,0.00019644,0.00000210,0.0000
 3081,-0.00011106,0.00000925,0.00000960,-0.00004562,-0.00002923,0.00004
 871,-0.00006771,0.00007223,-0.00008225,-0.04202330,-0.13673692,0.05727
 377,0.00000237,0.00000567,-0.00000188,0.00001042,-0.00000334,-0.000004
 97,-0.00001398,-0.00000812,0.00001466,0.00003453,0.00002535,-0.0000187
 6,-0.00000260,0.00000058,-0.00000568,-0.00000078,0.00000200,0.00000368
 ,0.03060170,0.16709400,0.00129168,-0.00110434,0.00050759,0.00024188,0.
 00045221,-0.00018581,-0.00055811,0.00020558,-0.00037194,0.00350418,-0.
 00130510,0.00085677,-0.00000019,-0.00004860,0.00006062,-0.00011670,-0.
 00000045,0.00010873,-0.00184470,0.00061959,-0.00061880,0.00043546,-0.0
 0034358,-0.00012125,0.00010938,0.00009797,0.00033913,0.00019624,0.0000
 5803,-0.00014244,-0.00135084,0.00063135,-0.00052783,-0.00205723,0.0071
 8472,-0.00219920,-0.00074798,0.00009731,-0.00021587,-0.00041440,0.0000
 0056,0.00000635,0.00001023,-0.00005654,-0.00000859,0.00036468,-0.00037
 954,0.00003145,-0.00003527,-0.00003842,-0.00001903,0.00028078,0.000079
 17,0.00000495,0.00000879,0.00001952,-0.00004090,-0.00017041,0.00008231
 ,0.00004351,0.00003717,0.00000711,-0.00001540,0.00001463,-0.00003405,0
 .00000848,0.00001677,-0.00001172,-0.00002875,-0.00002197,0.00055128,0.
 00039975,0.00000939,-0.00005499,-0.00012792,-0.00007258,-0.00004385,0.
 00006149,-0.00000105,-0.00001402,-0.00003034,-0.00002432,-0.00007370,-
 0.00003556,-0.00021647,-0.00003977,0.00018162,0.00013925,0.00002170,-0
 .00011774,-0.00004247,-0.00000949,0.00000683,-0.00000025,0.00002962,0.
 00003370,-0.00016899,-0.00001896,0.00008542,0.00017994,0.00002808,-0.0
 0011927,0.00007577,0.00007187,-0.00010321,0.00006013,-0.00006131,0.000
 07708,0.01312829,0.08628743,-0.05477641,0.00000292,-0.00000883,0.00000
 857,-0.00001447,0.00000599,0.00001250,0.00000773,0.00001331,-0.0000256
 0,-0.00002735,-0.00003052,0.00002296,0.00000241,-0.00000481,-0.0000019
 4,0.00000084,-0.00000301,-0.00000284,0.09114403,-0.08813487,0.17739658
 ,-0.00035994,0.00031554,-0.00015868,-0.00007377,-0.00011040,0.00004671
 ,0.00018575,-0.00005602,0.00013728,-0.00120265,0.00048305,-0.00026380,
 0.00000326,0.00001311,-0.00001738,0.00003174,-0.00000179,-0.00003135,0
 .00014093,0.00007504,-0.00000003,-0.00021195,-0.00009672,0.00002240,-0
 .00003059,-0.00002118,-0.00004132,-0.00003429,-0.00001562,0.00000766,0
 .00052946,-0.00018540,0.00013385,0.00054949,-0.00166225,0.00063897,0.0
 0021424,-0.00001612,0.00005179,0.00013201,0.00000211,-0.00000248,-0.00
 000250,0.00001693,0.00000367,-0.00010952,0.00012175,-0.00001635,0.0000
 1004,0.00001229,0.00000946,-0.00008881,-0.00003057,-0.00000012,-0.0000
 0095,-0.00001085,0.00001343,0.00005160,-0.00001928,-0.00001673,-0.0000
 1091,-0.00000289,0.00000566,-0.00000463,0.00000957,-0.00000190,-0.0000
 0517,0.00000242,0.00000907,0.00000992,-0.00017135,-0.00013617,-0.00000
 636,0.00000035,0.00004748,0.00000094,-0.00000736,-0.00000781,-0.000003
 30,0.00000171,0.00001180,0.00000006,0.00003247,0.00001030,0.00003660,0
 .00005768,-0.00004231,-0.00004601,-0.00006805,0.00004332,0.00002331,0.
 00002343,-0.00000511,0.00000635,0.00000200,-0.00001461,0.00005236,0.00
 005131,-0.00004034,-0.00002146,-0.00001165,0.00001606,-0.00002141,-0.0
 0003785,0.00003182,-0.00001708,0.00001777,-0.00001984,-0.00348318,-0.0
 0327196,-0.00175987,-0.00000187,0.00000483,-0.00000188,0.00000495,-0.0
 0000104,-0.00000335,-0.00000022,-0.00000521,0.00000671,0.00000670,0.00
 000827,-0.00000651,-0.00000561,0.00000200,0.00000431,0.00000179,-0.000
 00182,-0.00000131,-0.08206374,0.00954487,-0.10335168,0.08580892,-0.000
 07032,0.00002342,-0.00001820,0.00002667,-0.00001796,0.00002446,0.00002
 820,-0.00001819,-0.00001906,-0.00025448,-0.00007933,-0.00001061,-0.000
 00015,0.00000547,-0.00000450,0.00000343,0.00000391,-0.00000454,0.00018
 775,-0.00008108,0.00004183,0.00007168,-0.00000579,0.00001249,0.0000127
 4,0.00001284,-0.00000107,0.00001238,0.00000360,0.00003374,0.00003643,-
 0.00002392,0.00000794,0.00021446,-0.00047083,0.00006962,0.00004134,-0.
 00000608,0.00001285,0.00002321,-0.00000179,0.00000035,-0.00000003,0.00
 000337,-0.00000021,-0.00001236,0.00001310,0.00000571,0.00000107,0.0000
 0149,-0.00000204,-0.00001735,-0.00000135,-0.00000106,-0.00000213,-0.00
 000170,0.00000047,0.00001209,-0.00000613,-0.00000005,-0.00000254,-0.00
 000140,0.00000097,-0.00000019,0.00000207,-0.00000097,-0.00000146,0.000
 00013,0.00000159,-0.00000367,-0.00002008,0.00000804,-0.00000437,0.0000
 1550,-0.00000505,0.00001479,0.00000528,-0.00000619,0.00000145,0.000012
 46,0.00000185,-0.00000371,0.00006778,-0.00001654,0.00002614,0.00004426
 ,-0.00005404,-0.00003268,-0.00006248,0.00006920,0.00003145,0.00002835,
 -0.00001871,0.00000560,-0.00000080,-0.00001225,0.00001658,0.00004066,-
 0.00005786,-0.00002698,-0.00002116,0.00003627,-0.00001874,-0.00003792,
 0.00003538,-0.00000284,0.00000092,-0.00000404,0.02257545,-0.01243647,0
 .03715469,-0.00000287,0.00000475,-0.00000228,0.00000269,-0.00000021,-0
 .00000566,0.00000223,-0.00000539,0.00000465,-0.00000066,0.00000542,-0.
 00000284,-0.00000346,0.00000029,0.00000859,0.00000128,-0.00000033,-0.0
 0000292,-0.01790334,-0.02165147,-0.00475356,-0.00498442,0.03465497,-0.
 00047225,0.00039530,-0.00019143,-0.00008149,-0.00014001,0.00006499,0.0
 0017379,-0.00007416,0.00012007,-0.00110502,0.00059051,-0.00035241,-0.0
 0000096,0.00001573,-0.00002164,0.00003785,-0.00000110,-0.00003614,0.00
 043211,-0.00014465,0.00029547,-0.00091956,0.00039480,-0.00029590,-0.00
 000377,-0.00005665,-0.00010300,-0.00008344,-0.00001595,0.00003323,0.00
 056650,-0.00022176,0.00021053,0.00055899,-0.00156250,0.00068498,0.0002
 7369,-0.00002981,0.00007707,0.00014383,0.00000106,-0.00000274,-0.00000
 333,0.00001859,0.00000308,-0.00012413,0.00013102,-0.00001008,0.0000111
 7,0.00001225,0.00000555,-0.00009552,-0.00002974,-0.00000343,-0.0000031
 3,-0.00000824,0.00001510,0.00005716,-0.00002538,-0.00001539,-0.0000126
 4,-0.00000329,0.00000554,-0.00000488,0.00001112,-0.00000291,-0.0000052
 8,0.00000319,0.00000974,0.00000989,-0.00018614,-0.00013661,-0.00000574
 ,0.00001432,0.00004464,0.00002515,0.00001843,-0.00002400,-0.00000131,0
 .00000886,0.00000897,0.00000516,0.00003449,0.00000674,0.00007086,0.000
 01243,-0.00006232,-0.00004596,-0.00000505,0.00004654,0.00001431,0.0000
 0307,-0.00000672,-0.00000170,-0.00001204,-0.00001200,0.00005771,0.0000
 0330,-0.00003330,-0.00005686,-0.00001336,0.00004496,-0.00002477,-0.000
 02467,0.00003376,-0.00002053,0.00002027,-0.00002678,-0.02192379,0.0057
 1133,-0.03041126,-0.00000206,0.00000322,-0.00000331,0.00000517,-0.0000
 0192,-0.00000445,-0.00000075,-0.00000435,0.00000927,0.00000794,0.00001
 038,-0.00000811,-0.00000114,0.00000107,0.00000024,-0.00000032,0.000001
 70,0.00000128,-0.08214009,0.02767940,-0.12038152,0.10468096,-0.0325256
 4,0.15041207,0.00540692,-0.00075792,0.00069519,-0.00263616,-0.00022317
 ,-0.00053854,0.00078198,0.00063421,0.00119033,0.00096781,-0.00035839,0
 .00016652,0.00060305,-0.00003074,-0.00004959,0.00009441,0.00003879,-0.
 00024196,-0.00018204,0.00008892,-0.00000723,0.00003452,0.00000706,0.00
 004890,0.00001538,-0.00000801,-0.00006028,-0.00004604,-0.00004823,0.00
 002113,-0.00148228,0.00089086,-0.00033646,-0.00059008,0.00039812,-0.00
 014819,-0.00426311,0.00343031,-0.00292021,-0.00002553,-0.00009986,0.00
 003168,-0.00001998,0.00015750,-0.00001183,-0.00038703,0.00040068,-0.00
 014049,0.00009472,0.00011984,0.00003723,0.00007556,0.00021333,0.000401
 26,-0.00001507,-0.00006081,0.00008992,0.00019791,-0.00063203,-0.001383
 58,-0.00029846,0.00003776,0.00046039,-0.00002415,0.00037210,0.00033147
 ,-0.00009060,0.00006222,0.00013696,0.00000257,-0.00095467,-0.00103881,
 -0.00003866,-0.00001673,0.00021131,0.00009995,0.00005716,-0.00003321,-
 0.00000454,0.00000043,0.00005155,0.00000672,-0.00002224,0.00002716,0.0
 0025270,-0.00000600,-0.00019730,-0.00008490,0.00001231,0.00002842,0.00
 001786,-0.00000594,0.00001015,0.00000935,-0.00000699,-0.00001075,0.000
 05589,-0.00000688,-0.00001351,-0.00023366,0.00001843,0.00010761,-0.000
 08304,-0.00006468,0.00011031,-0.02604130,0.04912371,-0.02858795,0.0000
 2838,-0.00011184,0.00004216,-0.00000283,0.00000524,-0.00000860,0.00001
 069,-0.00000437,-0.00001189,-0.00001006,-0.00001670,0.00004625,0.00007
 081,0.00005361,-0.00005228,-0.00000160,0.00000142,0.00000508,-0.000001
 22,0.00000093,0.00000015,-0.00003209,0.00004763,-0.00003943,0.00001245
 ,0.00000208,0.00001266,0.16025701,-0.00535044,-0.00032129,-0.00066579,
 0.00151706,0.00056349,0.00027576,-0.00062994,-0.00037312,-0.00094925,-
 0.00086503,0.00005424,-0.00016514,-0.00013022,-0.00009840,0.00005110,-
 0.00004902,0.00000233,0.00016217,0.00011876,-0.00006588,-0.00002568,-0
 .00002787,-0.00000810,-0.00003488,-0.00000588,0.00000411,0.00004605,0.
 00005968,0.00005087,-0.00001255,0.00145541,-0.00059295,0.00027154,0.00
 048644,-0.00026429,0.00012646,0.00623250,-0.00439065,0.00481121,-0.000
 49828,-0.00005124,0.00000418,0.00000076,-0.00004989,-0.00002757,0.0005
 2356,-0.00052981,0.00014474,-0.00005678,-0.00006422,-0.00003609,0.0004
 1228,-0.00003620,-0.00007798,-0.00000399,0.00003773,-0.00006601,-0.000
 24770,0.00016591,-0.00033493,0.00004404,-0.00011443,0.00010524,0.00009
 624,0.00000086,0.00012415,-0.00000707,0.00000413,-0.00004534,-0.000018
 89,0.00084998,0.00080522,0.00001034,-0.00000861,-0.00015417,-0.0000325
 8,-0.00004141,-0.00000938,-0.00000156,-0.00000090,-0.00002475,-0.00000
 180,0.00000696,-0.00001537,-0.00013964,-0.00000705,0.00011471,0.000056
 82,-0.00000354,-0.00001803,-0.00001200,0.00000411,-0.00000712,-0.00000
 716,0.00000399,0.00000730,-0.00004172,-0.00000078,0.00000753,0.0001216
 3,-0.00000796,-0.00005938,0.00004888,0.00003742,-0.00006042,0.02268945
 ,-0.11094349,0.09380324,-0.00001783,0.00008245,-0.00003407,-0.00000416
 ,-0.00000296,0.00000986,-0.00000829,0.00000189,0.00000662,0.00002239,0
 .00001120,-0.00002893,-0.00004033,-0.00002943,0.00002611,0.00000489,0.
 00000084,-0.00000273,-0.00000089,-0.00000199,0.00000007,0.00001802,-0.
 00003765,0.00003079,-0.00000891,0.00000017,-0.00000857,-0.11052646,0.1
 6709716,0.00364994,-0.00081820,0.00050279,-0.00152050,-0.00003266,-0.0
 0028033,0.00034301,0.00036866,0.00054540,0.00072242,-0.00030799,0.0001
 3821,0.00041358,-0.00003150,-0.00021646,0.00008125,0.00004855,-0.00013
 408,-0.00012134,0.00005484,-0.00004396,0.00002583,0.00000307,0.0000398
 8,0.00001605,-0.00000637,-0.00004190,-0.00004863,-0.00003441,0.0000245
 1,-0.00101692,0.00066638,-0.00026474,-0.00046089,0.00033994,-0.0001234
 5,-0.00381932,0.00365129,-0.00224051,-0.00057967,-0.00019553,-0.000038
 82,-0.00001433,0.00015435,-0.00001284,0.00007361,-0.00002686,-0.000031
 87,0.00006719,0.00009166,0.00002184,0.00064417,0.00025621,0.00047859,-
 0.00004303,-0.00003969,0.00007935,0.00006721,-0.00087642,-0.00267247,-
 0.00009401,-0.00005503,0.00100984,0.00008937,0.00052972,0.00047565,-0.
 00020644,0.00010257,0.00017314,-0.00003960,-0.00032921,-0.00049283,-0.
 00004344,-0.00003806,0.00012411,0.00011115,0.00004298,-0.00008226,-0.0
 0001072,0.00000183,0.00005072,0.00000976,-0.00002368,0.00002316,0.0002
 3060,-0.00001510,-0.00017191,-0.00007677,0.00001596,0.00001995,0.00001
 556,-0.00000676,0.00000986,0.00001009,-0.00000506,-0.00000943,0.000046
 32,-0.00000656,-0.00000856,-0.00021120,0.00001696,0.00010085,-0.000079
 88,-0.00005688,0.00009467,0.00009222,0.06674980,-0.07443461,0.00002233
 ,-0.00009411,0.00003715,0.00000500,0.00000685,-0.00000704,0.00001208,-
 0.00000482,-0.00001117,-0.00002539,-0.00002290,0.00003069,0.00006091,0
 .00004524,-0.00003753,-0.00000699,0.00000232,0.00000655,0.00000090,0.0
 0000092,-0.00000154,-0.00002427,0.00004179,-0.00003671,0.00000967,0.00
 000113,0.00001207,-0.03997547,-0.06641055,0.11684830,-0.00236879,0.000
 47125,-0.00037564,0.00080846,0.00015061,0.00004905,-0.00020412,-0.0001
 8816,-0.00035476,-0.00045131,0.00012463,-0.00007339,-0.00010546,-0.000
 08089,0.00010476,-0.00003644,-0.00001868,0.00008128,0.00007070,-0.0000
 3163,0.00000260,-0.00001474,-0.00000342,-0.00001928,-0.00000572,0.0000
 0357,0.00002548,0.00001902,0.00001938,-0.00000692,0.00068384,-0.000377
 74,0.00016382,0.00025789,-0.00016831,0.00006411,0.00181564,-0.00119802
 ,0.00090174,0.00018539,0.00007378,-0.00000138,0.00000958,-0.00006990,0
 .00001013,0.00003911,-0.00005603,0.00002954,-0.00003323,-0.00004438,-0
 .00000983,-0.00021148,-0.00010086,-0.00015135,0.00001747,0.00001644,-0
 .00003384,0.00005125,0.00033549,0.00084706,-0.00017295,0.00006140,-0.0
 0079767,-0.00014120,-0.00032770,-0.00028173,0.00006088,-0.00004389,-0.
 00007946,0.00001147,0.00024568,0.00030261,0.00001752,0.00001297,-0.000
 06938,-0.00005122,-0.00002106,0.00003058,0.00000401,-0.00000024,-0.000
 02311,-0.00000444,0.00000979,-0.00001162,-0.00010403,0.00000523,0.0000
 8085,0.00003499,-0.00000496,-0.00001209,-0.00000739,0.00000249,-0.0000
 0409,-0.00000384,0.00000298,0.00000467,-0.00002341,0.00000263,0.000005
 84,0.00009717,-0.00000819,-0.00004730,0.00003495,0.00002580,-0.0000456
 7,-0.02104319,0.01153222,0.00954803,-0.00001171,0.00004737,-0.00001761
 ,0.00000077,-0.00000245,0.00000305,-0.00000455,0.00000203,0.00000529,0
 .00000506,0.00000747,-0.00001677,-0.00002749,-0.00002087,0.00001984,0.
 00000059,-0.00000079,-0.00000258,0.00000063,-0.00000035,0.00000008,0.0
 0001320,-0.00002025,0.00001597,-0.00000535,-0.00000074,-0.00000497,-0.
 13250217,0.08481785,0.04159543,0.15329328,0.00065903,-0.00021491,0.000
 20122,-0.00031164,-0.00006981,-0.00004411,0.00011139,0.00008419,0.0001
 7503,0.00008011,-0.00004194,0.00001680,0.00007153,0.00002252,-0.000026
 84,0.00000803,0.00000153,-0.00003292,-0.00000125,0.00000926,0.00000544
 ,0.00000350,0.00000454,0.00000332,-0.00000222,0.00000023,-0.00000535,-
 0.00001465,-0.00000303,-0.00000125,-0.00014941,0.00009980,-0.00005356,
 -0.00004943,0.00003554,-0.00001211,-0.00038135,0.00032953,-0.00018934,
 0.00006433,0.00000520,0.00000586,0.00000336,0.00001210,0.00000185,-0.0
 0008231,0.00008629,-0.00002806,0.00001128,0.00001331,0.00000529,-0.000
 04906,0.00002940,0.00002388,-0.00000543,-0.00001065,0.00001319,-0.0000
 1295,-0.00013745,-0.00007111,0.00010525,0.00006149,0.00025711,-0.00007
 327,-0.00010956,-0.00017540,0.00001239,-0.00000695,0.00001980,0.000003
 59,-0.00014770,-0.00014439,-0.00000321,-0.00000079,0.00002637,0.000007
 18,0.00000868,0.00000220,-0.00000009,0.00000026,0.00000452,-0.00000059
 ,-0.00000201,0.00000196,0.00002331,0.00000254,-0.00002160,-0.00000801,
 -0.00000026,0.00000399,0.00000183,-0.00000045,0.00000096,0.00000082,-0
 .00000052,-0.00000107,0.00000560,0.00000007,-0.00000142,-0.00002101,0.
 00000112,0.00001241,-0.00000762,-0.00000769,0.00001168,0.03738420,-0.0
 2717720,-0.00948541,0.00000051,-0.00001079,0.00000538,-0.00000163,0.00
 000126,-0.00000260,0.00000107,0.00000017,-0.00000104,0.00000092,-0.000
 00160,0.00000928,0.00000648,0.00000609,-0.00000733,-0.00000014,-0.0000
 0093,0.00000008,-0.00000014,0.00000064,0.00000024,0.00000032,0.0000041
 9,-0.00000362,0.00000064,0.,0.00000031,0.05778920,-0.05093320,-0.00375
 366,-0.09518085,0.07805701,0.00070367,0.00034694,0.00011306,-0.0002625
 3,-0.00016379,-0.00013220,0.00020040,0.00006931,0.00026912,0.00005783,
 0.00005616,0.00000856,-0.00000936,0.00000731,0.00005497,-0.00000724,-0
 .00001767,-0.00002746,-0.00001336,0.00000639,0.00000809,0.00000087,0.0
 0000102,0.00000165,-0.00000074,0.00000129,-0.00000125,-0.00000201,-0.0
 0000506,0.00000021,-0.00015869,0.00001507,-0.00001121,-0.00002120,-0.0
 0001365,-0.00000470,-0.00076774,0.00031376,-0.00075718,0.00047693,0.00
 009223,0.00003252,-0.00000086,-0.00002919,0.00001054,-0.00028887,0.000
 26963,-0.00005722,0.00000420,-0.00000165,0.00000947,-0.00046536,-0.000
 06165,-0.00007845,0.00003240,-0.00000527,0.,0.00019590,0.00015841,0.00
 057979,-0.00036165,0.00017609,-0.00140191,-0.00020673,-0.00050315,-0.0
 0042069,0.00008797,-0.00005772,-0.00008629,0.00003035,-0.00031034,-0.0
 0023359,0.00000921,0.00001946,0.00003112,-0.00003072,-0.00000002,0.000
 04221,0.00000541,-0.00000056,-0.00000824,-0.00000327,0.00000528,-0.000
 00143,-0.00002657,0.00000803,0.00002051,0.00000540,-0.00000293,-0.0000
 0328,-0.00000133,0.00000063,-0.00000020,-0.00000100,0.00000029,0.00000
 117,-0.00000068,0.00000147,0.00000098,0.00002590,-0.00000348,-0.000018
 87,0.00001047,0.00000550,-0.00001238,-0.01930468,0.01802299,0.00122445
 ,-0.00000013,0.00000223,0.00000013,-0.00000069,-0.00000144,0.00000132,
 -0.00000156,0.00000089,0.00000222,0.00000292,0.00000341,-0.00000356,-0
 .00000384,-0.00000325,0.00000299,0.00000080,-0.00000059,-0.00000229,0.
 00000002,0.,0.00000085,0.00000037,-0.00000240,-0.00000051,-0.00000035,
 0.00000097,0.00000025,0.07154282,-0.03165648,-0.03945709,-0.05145136,0
 .01325297,0.04030648\\-0.00000207,0.00000557,-0.00000100,0.00000156,0.
 00000392,0.00000162,-0.00000024,-0.00000046,-0.00000043,-0.00000298,0.
 00000188,-0.00000231,0.00000197,0.00000537,0.00000158,0.00000093,0.000
 00049,0.00000129,-0.00000503,0.00000327,-0.00000542,-0.00000618,0.0000
 0131,-0.00000633,-0.00000535,0.00000491,-0.00000689,-0.00000527,0.0000
 0432,-0.00000662,-0.00000229,0.00000324,-0.00000422,-0.00000237,-0.000
 00060,-0.00000545,-0.00000087,0.00000719,-0.00000137,0.00000294,0.0000
 0074,0.00000389,0.00000524,0.00000098,0.00000583,0.00000281,-0.0000023
 6,0.00000353,0.00000386,-0.00000289,0.00000533,0.00000210,0.00000183,0
 .00000207,0.00000058,0.00000115,0.00000122,0.00000254,0.00000505,0.000
 00421,0.00000235,0.00000577,0.00000119,0.00000422,0.00000635,0.0000044
 5,0.00000345,0.00000380,0.00000350,0.00000131,-0.00000283,0.00000160,0
 .00000004,-0.00000249,-0.00000055,0.00000069,-0.00000510,0.00000153,0.
 00000050,-0.00000728,0.00000095,-0.00000104,-0.00000524,-0.00000086,0.
 00000204,-0.00000439,-0.00000132,-0.00000109,-0.00000632,-0.00000188,-
 0.00000166,-0.00000809,-0.00000160,-0.00000171,-0.00000485,-0.00000237
 ,-0.00000335,-0.00000447,-0.00000165,0.00000074,-0.00000667,0.00000129
 ,0.00000059,-0.00000543,0.00000238,0.00000075,0.00001050,0.00000031,-0
 .00000559,-0.00000290,-0.00000613,0.00000665,-0.00000274,0.00000722,0.
 00000146,-0.00000363,0.00000147,0.00000438,-0.00000328,0.00000335,0.00
 000412,-0.00000244,0.00000844,-0.00000146,-0.00000553,0.00000009,0.000
 00063,-0.00000410,0.00000107,-0.00000644,-0.00000247,-0.00000911,-0.00
 000827,-0.00000484,-0.00000810,0.00000266,0.00001162,0.00000171,0.0000
 0214,0.00001214,0.00000247\\\@


 THE MOST BEAUTIFUL EXPERIENCE WE CAN HAVE IS THE MYSTERIOUS.
 IT IS THE FUNDAMENTAL EMOTION WHICH STANDS AT AT THE CRADLE 
 OF TRUE ART AND TRUE SCIENCE.

                                    -- ALBERT EINSTEIN
 Job cpu time:       0 days  0 hours  1 minutes 28.7 seconds.
 File lengths (MBytes):  RWF=    438 Int=      0 D2E=      0 Chk=     26 Scr=      1
 Normal termination of Gaussian 09 at Tue Aug 18 14:30:43 2020.
