 Entering Gaussian System, Link 0=g09
 Input=PM6_2H2O_diene_pm6_cpcmtoluene_1_water.com
 Output=PM6_2H2O_diene_pm6_cpcmtoluene_1_water.log
 Initial command:
 /apps/applications/gaussian/G09.D01/2/default/g09/l1.exe "/local/702246.1.40core-192G.q/Gau-226133.inp" -scrdir="/local/702246.1.40core-192G.q/"
 Entering Link 1 = /apps/applications/gaussian/G09.D01/2/default/g09/l1.exe PID=    226134.
  
 Copyright (c) 1988,1990,1992,1993,1995,1998,2003,2009,2013,
            Gaussian, Inc.  All Rights Reserved.
  
 This is part of the Gaussian(R) 09 program.  It is based on
 the Gaussian(R) 03 system (copyright 2003, Gaussian, Inc.),
 the Gaussian(R) 98 system (copyright 1998, Gaussian, Inc.),
 the Gaussian(R) 94 system (copyright 1995, Gaussian, Inc.),
 the Gaussian 92(TM) system (copyright 1992, Gaussian, Inc.),
 the Gaussian 90(TM) system (copyright 1990, Gaussian, Inc.),
 the Gaussian 88(TM) system (copyright 1988, Gaussian, Inc.),
 the Gaussian 86(TM) system (copyright 1986, Carnegie Mellon
 University), and the Gaussian 82(TM) system (copyright 1983,
 Carnegie Mellon University). Gaussian is a federally registered
 trademark of Gaussian, Inc.
  
 This software contains proprietary and confidential information,
 including trade secrets, belonging to Gaussian, Inc.
  
 This software is provided under written license and may be
 used, copied, transmitted, or stored only in accord with that
 written license.
  
 The following legend is applicable only to US Government
 contracts under FAR:
  
                    RESTRICTED RIGHTS LEGEND
  
 Use, reproduction and disclosure by the US Government is
 subject to restrictions as set forth in subparagraphs (a)
 and (c) of the Commercial Computer Software - Restricted
 Rights clause in FAR 52.227-19.
  
 Gaussian, Inc.
 340 Quinnipiac St., Bldg. 40, Wallingford CT 06492
  
  
 ---------------------------------------------------------------
 Warning -- This program may not be used in any manner that
 competes with the business of Gaussian, Inc. or will provide
 assistance to any competitor of Gaussian, Inc.  The licensee
 of this program is prohibited from giving any competitor of
 Gaussian, Inc. access to this program.  By using this program,
 the user acknowledges that Gaussian, Inc. is engaged in the
 business of creating and licensing software in the field of
 computational chemistry and represents and warrants to the
 licensee that it is not a competitor of Gaussian, Inc. and that
 it will not use this program in any manner prohibited above.
 ---------------------------------------------------------------
  

 Cite this work as:
 Gaussian 09, Revision D.01,
 M. J. Frisch, G. W. Trucks, H. B. Schlegel, G. E. Scuseria, 
 M. A. Robb, J. R. Cheeseman, G. Scalmani, V. Barone, B. Mennucci, 
 G. A. Petersson, H. Nakatsuji, M. Caricato, X. Li, H. P. Hratchian, 
 A. F. Izmaylov, J. Bloino, G. Zheng, J. L. Sonnenberg, M. Hada, 
 M. Ehara, K. Toyota, R. Fukuda, J. Hasegawa, M. Ishida, T. Nakajima, 
 Y. Honda, O. Kitao, H. Nakai, T. Vreven, J. A. Montgomery, Jr., 
 J. E. Peralta, F. Ogliaro, M. Bearpark, J. J. Heyd, E. Brothers, 
 K. N. Kudin, V. N. Staroverov, T. Keith, R. Kobayashi, J. Normand, 
 K. Raghavachari, A. Rendell, J. C. Burant, S. S. Iyengar, J. Tomasi, 
 M. Cossi, N. Rega, J. M. Millam, M. Klene, J. E. Knox, J. B. Cross, 
 V. Bakken, C. Adamo, J. Jaramillo, R. Gomperts, R. E. Stratmann, 
 O. Yazyev, A. J. Austin, R. Cammi, C. Pomelli, J. W. Ochterski, 
 R. L. Martin, K. Morokuma, V. G. Zakrzewski, G. A. Voth, 
 P. Salvador, J. J. Dannenberg, S. Dapprich, A. D. Daniels, 
 O. Farkas, J. B. Foresman, J. V. Ortiz, J. Cioslowski, 
 and D. J. Fox, Gaussian, Inc., Wallingford CT, 2013.
 
 ******************************************
 Gaussian 09:  ES64L-G09RevD.01 24-Apr-2013
                18-Aug-2020 
 ******************************************
 %nprocshared=4
 Will use up to    4 processors via shared memory.
 %chk=PM6_2H2O_diene_pm6_cpcmtoluene_1_water.chk
 ----------------------------------------------------------------------
 # opt freq pm6 scrf=(cpcm,solvent=water) geom=connectivity empiricaldi
 spersion=gd3
 ----------------------------------------------------------------------
 1/14=-1,18=20,19=15,26=1,38=1,57=2/1,3;
 2/9=110,12=2,17=6,18=5,40=1/2;
 3/5=2,16=1,25=1,41=3900000,70=2101,71=1,72=1,124=31/1,2,3;
 4/35=1/1;
 5/5=2,35=1,38=5,53=1/2;
 6/7=2,8=2,9=2,10=2,28=1/1;
 7//1,2,3,16;
 1/14=-1,18=20,19=15,26=1/3(2);
 2/9=110/2;
 99//99;
 2/9=110/2;
 3/5=2,16=1,25=1,41=3900000,70=2105,71=1,72=1,124=31,135=20/1,2,3;
 4/5=5,16=3,35=1/1;
 5/5=2,35=1,38=5,53=1/2;
 7//1,2,3,16;
 1/14=-1,18=20,19=15,26=1/3(-5);
 2/9=110/2;
 6/7=2,8=2,9=2,10=2,19=2,28=1/1;
 99/9=1/99;
 -------------------
 Title Card Required
 -------------------
 Symbolic Z-matrix:
 Charge =  0 Multiplicity = 1
 C                     3.23544  -0.43569  -0.2737 
 H                     3.42294  -1.35391  -0.83751 
 C                     1.8225   -0.06502  -0.18072 
 H                     1.1292   -0.91819  -0.09994 
 C                     4.23594   0.25316   0.29297 
 H                     4.05178   1.16079   0.87223 
 C                     5.6666   -0.14984   0.20278 
 H                     6.0853   -0.35164   1.20017 
 H                     5.82649  -1.05375  -0.40063 
 H                     6.27617   0.6485   -0.24595 
 C                     1.36893   1.19436  -0.21072 
 H                     2.03584   2.05398  -0.3085 
 C                    -0.07309   1.57678  -0.12583 
 H                    -0.4052    2.14594  -1.01438 
 H                    -0.29934   2.13303   0.80334 
 C                    -2.19006   0.29724   0.02425 
 C                    -2.96482   1.55327   0.11721 
 H                    -2.81247   2.21931  -0.74626 
 H                    -4.05791   1.3436    0.15898 
 H                    -2.73004   2.1319    1.02519 
 O                    -0.82499   0.31812  -0.09574 
 O                    -2.63903  -0.84084   0.04096 
 O                    -5.41999  -0.38448   0.16052 
 H                    -4.59434  -0.88746   0.26713 
 H                    -5.88261  -0.78796  -0.56924 
 O                    -0.26335  -2.6831   -0.06513 
 H                    -0.57619  -3.14561   0.70794 
 H                    -0.89941  -1.96162  -0.21495 
 
 Add virtual bond connecting atoms H24        and O22        Dist= 3.72D+00.
 Add virtual bond connecting atoms H28        and O22        Dist= 3.94D+00.

 GradGradGradGradGradGradGradGradGradGradGradGradGradGradGradGradGradGrad
 Berny optimization.
 Initialization pass.
                           ----------------------------
                           !    Initial Parameters    !
                           ! (Angstroms and Degrees)  !
 --------------------------                            --------------------------
 ! Name  Definition              Value          Derivative Info.                !
 --------------------------------------------------------------------------------
 ! R1    R(1,2)                  1.0937         estimate D2E/DX2                !
 ! R2    R(1,3)                  1.4637         estimate D2E/DX2                !
 ! R3    R(1,5)                  1.3404         estimate D2E/DX2                !
 ! R4    R(3,4)                  1.1023         estimate D2E/DX2                !
 ! R5    R(3,11)                 1.3389         estimate D2E/DX2                !
 ! R6    R(5,6)                  1.0924         estimate D2E/DX2                !
 ! R7    R(5,7)                  1.4891         estimate D2E/DX2                !
 ! R8    R(7,8)                  1.1004         estimate D2E/DX2                !
 ! R9    R(7,9)                  1.0985         estimate D2E/DX2                !
 ! R10   R(7,10)                 1.1001         estimate D2E/DX2                !
 ! R11   R(11,12)                1.0924         estimate D2E/DX2                !
 ! R12   R(11,13)                1.4943         estimate D2E/DX2                !
 ! R13   R(13,14)                1.1062         estimate D2E/DX2                !
 ! R14   R(13,15)                1.1063         estimate D2E/DX2                !
 ! R15   R(13,21)                1.4665         estimate D2E/DX2                !
 ! R16   R(16,17)                1.4787         estimate D2E/DX2                !
 ! R17   R(16,21)                1.3705         estimate D2E/DX2                !
 ! R18   R(16,22)                1.2235         estimate D2E/DX2                !
 ! R19   R(17,18)                1.1011         estimate D2E/DX2                !
 ! R20   R(17,19)                1.1138         estimate D2E/DX2                !
 ! R21   R(17,20)                1.102          estimate D2E/DX2                !
 ! R22   R(22,24)                1.9689         estimate D2E/DX2                !
 ! R23   R(22,28)                2.0852         estimate D2E/DX2                !
 ! R24   R(23,24)                0.9726         estimate D2E/DX2                !
 ! R25   R(23,25)                0.9536         estimate D2E/DX2                !
 ! R26   R(26,27)                0.9536         estimate D2E/DX2                !
 ! R27   R(26,28)                0.9734         estimate D2E/DX2                !
 ! A1    A(2,1,3)              114.258          estimate D2E/DX2                !
 ! A2    A(2,1,5)              121.4286         estimate D2E/DX2                !
 ! A3    A(3,1,5)              124.3012         estimate D2E/DX2                !
 ! A4    A(1,3,4)              114.5689         estimate D2E/DX2                !
 ! A5    A(1,3,11)             124.3182         estimate D2E/DX2                !
 ! A6    A(4,3,11)             121.1037         estimate D2E/DX2                !
 ! A7    A(1,5,6)              121.6923         estimate D2E/DX2                !
 ! A8    A(1,5,7)              123.536          estimate D2E/DX2                !
 ! A9    A(6,5,7)              114.7689         estimate D2E/DX2                !
 ! A10   A(5,7,8)              111.1194         estimate D2E/DX2                !
 ! A11   A(5,7,9)              113.3163         estimate D2E/DX2                !
 ! A12   A(5,7,10)             111.141          estimate D2E/DX2                !
 ! A13   A(8,7,9)              106.954          estimate D2E/DX2                !
 ! A14   A(8,7,10)             106.9756         estimate D2E/DX2                !
 ! A15   A(9,7,10)             107.0033         estimate D2E/DX2                !
 ! A16   A(3,11,12)            122.3693         estimate D2E/DX2                !
 ! A17   A(3,11,13)            124.4974         estimate D2E/DX2                !
 ! A18   A(12,11,13)           113.1321         estimate D2E/DX2                !
 ! A19   A(11,13,14)           112.0712         estimate D2E/DX2                !
 ! A20   A(11,13,15)           111.947          estimate D2E/DX2                !
 ! A21   A(11,13,21)           106.0398         estimate D2E/DX2                !
 ! A22   A(14,13,15)           110.764          estimate D2E/DX2                !
 ! A23   A(14,13,21)           107.7064         estimate D2E/DX2                !
 ! A24   A(15,13,21)           108.0264         estimate D2E/DX2                !
 ! A25   A(17,16,21)           120.9602         estimate D2E/DX2                !
 ! A26   A(17,16,22)           126.6533         estimate D2E/DX2                !
 ! A27   A(21,16,22)           112.3865         estimate D2E/DX2                !
 ! A28   A(16,17,18)           113.0803         estimate D2E/DX2                !
 ! A29   A(16,17,19)           110.8955         estimate D2E/DX2                !
 ! A30   A(16,17,20)           112.7173         estimate D2E/DX2                !
 ! A31   A(18,17,19)           106.2046         estimate D2E/DX2                !
 ! A32   A(18,17,20)           107.4003         estimate D2E/DX2                !
 ! A33   A(19,17,20)           106.0831         estimate D2E/DX2                !
 ! A34   A(13,21,16)           121.7071         estimate D2E/DX2                !
 ! A35   A(16,22,24)           112.8302         estimate D2E/DX2                !
 ! A36   A(16,22,28)           101.0783         estimate D2E/DX2                !
 ! A37   A(24,22,28)           146.0878         estimate D2E/DX2                !
 ! A38   A(24,23,25)           106.0752         estimate D2E/DX2                !
 ! A39   A(22,24,23)           144.9022         estimate D2E/DX2                !
 ! A40   A(27,26,28)           105.6571         estimate D2E/DX2                !
 ! A41   A(22,28,26)           157.614          estimate D2E/DX2                !
 ! D1    D(2,1,3,4)             35.5011         estimate D2E/DX2                !
 ! D2    D(2,1,3,11)          -143.4092         estimate D2E/DX2                !
 ! D3    D(5,1,3,4)           -143.2445         estimate D2E/DX2                !
 ! D4    D(5,1,3,11)            37.8452         estimate D2E/DX2                !
 ! D5    D(2,1,5,6)           -178.8741         estimate D2E/DX2                !
 ! D6    D(2,1,5,7)              0.4845         estimate D2E/DX2                !
 ! D7    D(3,1,5,6)             -0.2143         estimate D2E/DX2                !
 ! D8    D(3,1,5,7)            179.1442         estimate D2E/DX2                !
 ! D9    D(1,3,11,12)           -0.0244         estimate D2E/DX2                !
 ! D10   D(1,3,11,13)          179.5472         estimate D2E/DX2                !
 ! D11   D(4,3,11,12)         -178.8669         estimate D2E/DX2                !
 ! D12   D(4,3,11,13)            0.7047         estimate D2E/DX2                !
 ! D13   D(1,5,7,8)           -118.7434         estimate D2E/DX2                !
 ! D14   D(1,5,7,9)              1.7128         estimate D2E/DX2                !
 ! D15   D(1,5,7,10)           122.2485         estimate D2E/DX2                !
 ! D16   D(6,5,7,8)             60.6555         estimate D2E/DX2                !
 ! D17   D(6,5,7,9)           -178.8883         estimate D2E/DX2                !
 ! D18   D(6,5,7,10)           -58.3526         estimate D2E/DX2                !
 ! D19   D(3,11,13,14)        -120.7775         estimate D2E/DX2                !
 ! D20   D(3,11,13,15)         114.0648         estimate D2E/DX2                !
 ! D21   D(3,11,13,21)          -3.5157         estimate D2E/DX2                !
 ! D22   D(12,11,13,14)         58.829          estimate D2E/DX2                !
 ! D23   D(12,11,13,15)        -66.3287         estimate D2E/DX2                !
 ! D24   D(12,11,13,21)        176.0908         estimate D2E/DX2                !
 ! D25   D(11,13,21,16)        177.8728         estimate D2E/DX2                !
 ! D26   D(14,13,21,16)        -61.9809         estimate D2E/DX2                !
 ! D27   D(15,13,21,16)         57.7057         estimate D2E/DX2                !
 ! D28   D(21,16,17,18)         58.0589         estimate D2E/DX2                !
 ! D29   D(21,16,17,19)        177.228          estimate D2E/DX2                !
 ! D30   D(21,16,17,20)        -64.0012         estimate D2E/DX2                !
 ! D31   D(22,16,17,18)       -121.9074         estimate D2E/DX2                !
 ! D32   D(22,16,17,19)         -2.7384         estimate D2E/DX2                !
 ! D33   D(22,16,17,20)        116.0325         estimate D2E/DX2                !
 ! D34   D(17,16,21,13)          0.5285         estimate D2E/DX2                !
 ! D35   D(22,16,21,13)       -179.5007         estimate D2E/DX2                !
 ! D36   D(17,16,22,24)         -1.7494         estimate D2E/DX2                !
 ! D37   D(17,16,22,28)        177.7395         estimate D2E/DX2                !
 ! D38   D(21,16,22,24)        178.2818         estimate D2E/DX2                !
 ! D39   D(21,16,22,28)         -2.2293         estimate D2E/DX2                !
 ! D40   D(16,22,24,23)         22.8177         estimate D2E/DX2                !
 ! D41   D(28,22,24,23)       -156.2833         estimate D2E/DX2                !
 ! D42   D(16,22,28,26)        137.1619         estimate D2E/DX2                !
 ! D43   D(24,22,28,26)        -43.6824         estimate D2E/DX2                !
 ! D44   D(25,23,24,22)        108.7228         estimate D2E/DX2                !
 ! D45   D(27,26,28,22)         -9.1619         estimate D2E/DX2                !
 --------------------------------------------------------------------------------
 Trust Radius=3.00D-01 FncErr=1.00D-07 GrdErr=1.00D-07
 Number of steps in this run=    123 maximum allowed number of steps=    168.
 GradGradGradGradGradGradGradGradGradGradGradGradGradGradGradGradGradGrad

                          Input orientation:                          
 ---------------------------------------------------------------------
 Center     Atomic      Atomic             Coordinates (Angstroms)
 Number     Number       Type             X           Y           Z
 ---------------------------------------------------------------------
      1          6           0        3.235438   -0.435687   -0.273695
      2          1           0        3.422940   -1.353912   -0.837508
      3          6           0        1.822497   -0.065018   -0.180721
      4          1           0        1.129199   -0.918188   -0.099936
      5          6           0        4.235936    0.253156    0.292968
      6          1           0        4.051782    1.160786    0.872228
      7          6           0        5.666603   -0.149843    0.202777
      8          1           0        6.085302   -0.351640    1.200169
      9          1           0        5.826493   -1.053754   -0.400631
     10          1           0        6.276170    0.648496   -0.245952
     11          6           0        1.368927    1.194356   -0.210720
     12          1           0        2.035839    2.053977   -0.308502
     13          6           0       -0.073085    1.576782   -0.125826
     14          1           0       -0.405198    2.145935   -1.014379
     15          1           0       -0.299337    2.133030    0.803337
     16          6           0       -2.190061    0.297239    0.024253
     17          6           0       -2.964820    1.553270    0.117210
     18          1           0       -2.812474    2.219313   -0.746257
     19          1           0       -4.057906    1.343601    0.158983
     20          1           0       -2.730043    2.131895    1.025190
     21          8           0       -0.824991    0.318116   -0.095737
     22          8           0       -2.639028   -0.840835    0.040963
     23          8           0       -5.419986   -0.384484    0.160517
     24          1           0       -4.594337   -0.887457    0.267132
     25          1           0       -5.882610   -0.787961   -0.569242
     26          8           0       -0.263348   -2.683098   -0.065128
     27          1           0       -0.576192   -3.145610    0.707938
     28          1           0       -0.899414   -1.961621   -0.214954
 ---------------------------------------------------------------------
                    Distance matrix (angstroms):
                    1          2          3          4          5
     1  C    0.000000
     2  H    1.093700   0.000000
     3  C    1.463708   2.157321   0.000000
     4  H    2.167774   2.448493   1.102310   0.000000
     5  C    1.340376   2.126407   2.479981   3.343387   0.000000
     6  H    2.127976   3.105213   2.753363   3.716010   1.092358
     7  C    2.493852   2.750636   3.864119   4.611944   1.489077
     8  H    3.209527   3.499264   4.490046   5.155018   2.146846
     9  H    2.666774   2.461305   4.130126   4.708860   2.172318
    10  H    3.228355   3.535604   4.510938   5.382112   2.146924
    11  C    2.478885   3.332492   1.338898   2.128987   3.059297
    12  H    2.763816   3.717204   2.133538   3.114364   2.906054
    13  C    3.875335   4.617104   2.508336   2.769663   4.527144
    14  H    4.524115   5.189880   3.247449   3.546749   5.179951
    15  H    4.500327   5.357843   3.209667   3.488058   4.935900
    16  C    5.482882   5.913942   4.034088   3.536972   6.431764
    17  C    6.523186   7.082843   5.062215   4.787092   7.319295
    18  H    6.621901   7.187256   5.198168   5.079215   7.390930
    19  H    7.519704   8.014526   6.056298   5.664697   8.366292
    20  H    6.623182   7.312981   5.196756   5.046054   7.251943
    21  O    4.133639   4.625021   2.676417   2.312428   5.076248
    22  O    5.896822   6.146740   4.533899   3.771654   6.966021
    23  O    8.666460   8.951714   7.257552   6.576055   9.677859
    24  H    7.861423   8.106451   6.484808   5.735377   8.903673
    25  H    9.129635   9.326603   7.748695   7.028703  10.208443
    26  O    4.163635   3.993999   3.349396   2.248401   5.384550
    27  H    4.778683   4.646681   4.004182   2.919320   5.905962
    28  H    4.407826   4.409039   3.317691   2.284131   5.615607
                    6          7          8          9         10
     6  H    0.000000
     7  C    2.184848   0.000000
     8  H    2.555422   1.100373   0.000000
     9  H    3.110298   1.098509   1.767062   0.000000
    10  H    2.541785   1.100125   1.768606   1.767425   0.000000
    11  C    2.893374   4.521932   5.159933   4.995994   4.937635
    12  H    2.501188   4.277929   4.945830   4.902605   4.467628
    13  C    4.264234   6.002769   6.588080   6.465312   6.417880
    14  H    4.939076   6.604456   7.298541   7.031975   6.890100
    15  H    4.458951   6.415966   6.862556   7.009346   6.822180
    16  C    6.358096   7.871399   8.383642   8.140691   8.477822
    17  C    7.068012   8.798260   9.311616   9.184330   9.292276
    18  H    7.131478   8.854847   9.464079   9.244684   9.236949
    19  H    8.143045   9.838616  10.336468  10.186355  10.365340
    20  H    6.852708   8.739929   9.160179   9.240976   9.215647
    21  O    5.042813   6.515281   7.062584   6.798325   7.110429
    22  O    7.033095   8.335896   8.814590   8.479704   9.043295
    23  O    9.623346  11.089152  11.552212  11.280341  11.748716
    24  H    8.905999  10.287619  10.733701  10.443527  10.990465
    25  H   10.225830  11.592564  12.105871  11.713333  12.247606
    26  O    5.854437   6.453950   6.880554   6.312962   7.341492
    27  H    6.323779   6.942787   7.240446   6.826358   7.890501
    28  H    5.953632   6.824194   7.306221   6.789442   7.635619
                   11         12         13         14         15
    11  C    0.000000
    12  H    1.092374   0.000000
    13  C    1.494274   2.169941   0.000000
    14  H    2.167692   2.542711   1.106237   0.000000
    15  H    2.166224   2.587563   1.106321   1.820842   0.000000
    16  C    3.677829   4.588582   2.478173   2.771673   2.748079
    17  C    4.360931   5.043662   2.902025   2.860666   2.812773
    18  H    4.338370   4.870842   2.881325   2.423273   2.953734
    19  H    5.441459   6.152796   4.001786   3.919540   3.894256
    20  H    4.382694   4.949590   2.948290   3.092724   2.440810
    21  O    2.365226   3.353033   1.466461   2.088313   2.092501
    22  O    4.502116   5.509668   3.529413   3.876150   3.859954
    23  O    6.979964   7.858460   5.702447   5.738597   5.742137
    24  H    6.334257   7.276168   5.164166   5.328473   5.278057
    25  H    7.526148   8.417032   6.288021   6.229602   6.448961
    26  O    4.209533   5.271183   4.264559   4.923490   4.893937
    27  H    4.843834   5.906908   4.821749   5.567411   5.286756
    28  H    3.886590   4.974886   3.634702   4.213709   4.261828
                   16         17         18         19         20
    16  C    0.000000
    17  C    1.478684   0.000000
    18  H    2.162279   1.101089   0.000000
    19  H    2.145197   1.113797   1.771280   0.000000
    20  H    2.158569   1.101978   1.775517   1.770577   0.000000
    21  O    1.370492   2.479883   2.826272   3.401212   2.859282
    22  O    1.223545   2.417373   3.164539   2.607471   3.132748
    23  O    3.303896   3.128036   3.794880   2.200350   3.783598
    24  H    2.691289   2.938529   3.722098   2.297188   3.628599
    25  H    3.894203   3.803430   4.301252   2.898864   4.583280
    26  O    3.550017   5.027724   5.567370   5.537436   5.518835
    27  H    3.863316   5.304147   5.991497   5.707600   5.708921
    28  H    2.612554   4.090317   4.628422   4.586981   4.652530
                   21         22         23         24         25
    21  O    0.000000
    22  O    2.156985   0.000000
    23  O    4.655458   2.820687   0.000000
    24  H    3.974047   1.968898   0.972648   0.000000
    25  H    5.198762   3.300904   0.953605   1.539178   0.000000
    26  O    3.053468   3.008163   5.650262   4.700233   5.951620
    27  H    3.564434   3.164196   5.602305   4.630233   5.945399
    28  H    2.284065   2.085165   4.802490   3.877975   5.131787
                   26         27         28
    26  O    0.000000
    27  H    0.953635   0.000000
    28  H    0.973425   1.535589   0.000000
 Stoichiometry    C8H16O4
 Framework group  C1[X(C8H16O4)]
 Deg. of freedom    78
 Full point group                 C1      NOp   1
 Largest Abelian subgroup         C1      NOp   1
 Largest concise Abelian subgroup C1      NOp   1
                         Standard orientation:                         
 ---------------------------------------------------------------------
 Center     Atomic      Atomic             Coordinates (Angstroms)
 Number     Number       Type             X           Y           Z
 ---------------------------------------------------------------------
      1          6           0       -3.235438    0.435687   -0.273695
      2          1           0       -3.422940    1.353912   -0.837508
      3          6           0       -1.822497    0.065018   -0.180721
      4          1           0       -1.129199    0.918188   -0.099936
      5          6           0       -4.235936   -0.253156    0.292968
      6          1           0       -4.051782   -1.160786    0.872228
      7          6           0       -5.666603    0.149843    0.202777
      8          1           0       -6.085302    0.351640    1.200169
      9          1           0       -5.826493    1.053754   -0.400631
     10          1           0       -6.276170   -0.648496   -0.245952
     11          6           0       -1.368927   -1.194356   -0.210720
     12          1           0       -2.035839   -2.053977   -0.308502
     13          6           0        0.073085   -1.576782   -0.125826
     14          1           0        0.405198   -2.145935   -1.014379
     15          1           0        0.299337   -2.133030    0.803337
     16          6           0        2.190061   -0.297239    0.024253
     17          6           0        2.964820   -1.553270    0.117210
     18          1           0        2.812474   -2.219313   -0.746257
     19          1           0        4.057906   -1.343601    0.158983
     20          1           0        2.730043   -2.131895    1.025190
     21          8           0        0.824991   -0.318116   -0.095737
     22          8           0        2.639028    0.840835    0.040963
     23          8           0        5.419986    0.384484    0.160517
     24          1           0        4.594337    0.887457    0.267132
     25          1           0        5.882610    0.787961   -0.569242
     26          8           0        0.263348    2.683098   -0.065128
     27          1           0        0.576192    3.145610    0.707938
     28          1           0        0.899414    1.961621   -0.214954
 ---------------------------------------------------------------------
 Rotational constants (GHZ):      1.8829743      0.2821221      0.2482257
 Standard basis: VSTO-6G (5D, 7F)
 There are    64 symmetry adapted cartesian basis functions of A   symmetry.
 There are    64 symmetry adapted basis functions of A   symmetry.
    64 basis functions,   384 primitive gaussians,    64 cartesian basis functions
    36 alpha electrons       36 beta electrons
       nuclear repulsion energy       439.2979868092 Hartrees.
 Integral buffers will be    131072 words long.
 Regular integral format.
 Two-electron integral symmetry is turned off.
 Nuclear repulsion after empirical dispersion term =      439.2917673983 Hartrees.
 ------------------------------------------------------------------------------
 Polarizable Continuum Model (PCM)
 =================================
 Model                : C-PCM.
 Atomic radii         : UFF (Universal Force Field).
 Polarization charges : Total charges.
 Charge compensation  : None.
 Solution method      : On-the-fly selection.
 Cavity type          : Scaled VdW (van der Waals Surface) (Alpha=1.100).
 Cavity algorithm     : GePol (No added spheres)
                        Default sphere list used, NSphG=   28.
                        Lebedev-Laikov grids with approx.  5.0 points / Ang**2.
                        Smoothing algorithm: Karplus/York (Gamma=1.0000).
                        Polarization charges: spherical gaussians, with
                                              point-specific exponents (IZeta= 3).
                        Self-potential: point-specific (ISelfS= 7).
                        Self-field    : sphere-specific E.n sum rule (ISelfD= 2).
 1st derivatives      : Analytical E(r).r(x)/FMM algorithm (CHGder, D1EAlg=3).
                        Cavity 1st derivative terms included.
 Solvent              : Water, Eps=  78.355300 Eps(inf)=   1.777849
 ------------------------------------------------------------------------------
 Do NDO integrals.
 One-electron integrals computed using PRISM.
 NBasis=    64 RedAO= F EigKep=  0.00D+00  NBF=    64
 NBsUse=    64 1.00D-04 EigRej=  0.00D+00 NBFU=    64
 Simple Huckel Guess.
 Overlap will be assumed to be unity.
 Keep J ints in memory in canonical form, NReq=8812368.
 Requested convergence on RMS density matrix=1.00D-08 within 128 cycles.
 Requested convergence on MAX density matrix=1.00D-06.
 Requested convergence on             energy=1.00D-06.
 No special actions if energy rises.
 Inv3:  Mode=1 IEnd=    15608883.
 Iteration    1 A*A^-1 deviation from unit magnitude is 6.66D-15 for   2258.
 Iteration    1 A*A^-1 deviation from orthogonality  is 3.42D-15 for   2271   1956.
 Iteration    1 A^-1*A deviation from unit magnitude is 6.66D-15 for   2258.
 Iteration    1 A^-1*A deviation from orthogonality  is 2.22D-15 for   2263   1916.
 Error on total polarization charges = -0.00017
 SCF Done:  E(RPM6D3) = -0.325212754712     A.U. after   15 cycles
            NFock= 14  Conv=0.95D-08     -V/T= 0.9925

 **********************************************************************

            Population analysis using the SCF density.

 **********************************************************************

 Orbital symmetries:
       Occupied  (A) (A) (A) (A) (A) (A) (A) (A) (A) (A) (A) (A)
                 (A) (A) (A) (A) (A) (A) (A) (A) (A) (A) (A) (A)
                 (A) (A) (A) (A) (A) (A) (A) (A) (A) (A) (A) (A)
       Virtual   (A) (A) (A) (A) (A) (A) (A) (A) (A) (A) (A) (A)
                 (A) (A) (A) (A) (A) (A) (A) (A) (A) (A) (A) (A)
                 (A) (A) (A) (A)
 The electronic state is 1-A.
 Alpha  occ. eigenvalues --   -1.19222  -1.13831  -1.10480  -1.10280  -1.05379
 Alpha  occ. eigenvalues --   -1.01448  -0.99429  -0.94488  -0.84972  -0.79908
 Alpha  occ. eigenvalues --   -0.75442  -0.69643  -0.68838  -0.68553  -0.65770
 Alpha  occ. eigenvalues --   -0.63968  -0.61987  -0.58660  -0.56510  -0.55980
 Alpha  occ. eigenvalues --   -0.53224  -0.52920  -0.52812  -0.52352  -0.51924
 Alpha  occ. eigenvalues --   -0.51436  -0.50129  -0.48439  -0.45966  -0.45085
 Alpha  occ. eigenvalues --   -0.44128  -0.44091  -0.43794  -0.42682  -0.40801
 Alpha  occ. eigenvalues --   -0.34798
 Alpha virt. eigenvalues --    0.00830   0.00873   0.02493   0.05762   0.08708
 Alpha virt. eigenvalues --    0.11612   0.12941   0.14470   0.15258   0.15523
 Alpha virt. eigenvalues --    0.16164   0.17648   0.18010   0.18438   0.18516
 Alpha virt. eigenvalues --    0.18692   0.18941   0.19980   0.20678   0.20879
 Alpha virt. eigenvalues --    0.21136   0.21451   0.22019   0.22427   0.22654
 Alpha virt. eigenvalues --    0.23008   0.23322   0.24469
          Condensed to atoms (all electrons):
               1          2          3          4          5          6
     1  C    4.253690   0.000000   0.000000   0.000000   0.000000   0.000000
     2  H    0.000000   0.839703   0.000000   0.000000   0.000000   0.000000
     3  C    0.000000   0.000000   4.099881   0.000000   0.000000   0.000000
     4  H    0.000000   0.000000   0.000000   0.831597   0.000000   0.000000
     5  C    0.000000   0.000000   0.000000   0.000000   4.046478   0.000000
     6  H    0.000000   0.000000   0.000000   0.000000   0.000000   0.860393
     7  C    0.000000   0.000000   0.000000   0.000000   0.000000   0.000000
     8  H    0.000000   0.000000   0.000000   0.000000   0.000000   0.000000
     9  H    0.000000   0.000000   0.000000   0.000000   0.000000   0.000000
    10  H    0.000000   0.000000   0.000000   0.000000   0.000000   0.000000
    11  C    0.000000   0.000000   0.000000   0.000000   0.000000   0.000000
    12  H    0.000000   0.000000   0.000000   0.000000   0.000000   0.000000
    13  C    0.000000   0.000000   0.000000   0.000000   0.000000   0.000000
    14  H    0.000000   0.000000   0.000000   0.000000   0.000000   0.000000
    15  H    0.000000   0.000000   0.000000   0.000000   0.000000   0.000000
    16  C    0.000000   0.000000   0.000000   0.000000   0.000000   0.000000
    17  C    0.000000   0.000000   0.000000   0.000000   0.000000   0.000000
    18  H    0.000000   0.000000   0.000000   0.000000   0.000000   0.000000
    19  H    0.000000   0.000000   0.000000   0.000000   0.000000   0.000000
    20  H    0.000000   0.000000   0.000000   0.000000   0.000000   0.000000
    21  O    0.000000   0.000000   0.000000   0.000000   0.000000   0.000000
    22  O    0.000000   0.000000   0.000000   0.000000   0.000000   0.000000
    23  O    0.000000   0.000000   0.000000   0.000000   0.000000   0.000000
    24  H    0.000000   0.000000   0.000000   0.000000   0.000000   0.000000
    25  H    0.000000   0.000000   0.000000   0.000000   0.000000   0.000000
    26  O    0.000000   0.000000   0.000000   0.000000   0.000000   0.000000
    27  H    0.000000   0.000000   0.000000   0.000000   0.000000   0.000000
    28  H    0.000000   0.000000   0.000000   0.000000   0.000000   0.000000
               7          8          9         10         11         12
     1  C    0.000000   0.000000   0.000000   0.000000   0.000000   0.000000
     2  H    0.000000   0.000000   0.000000   0.000000   0.000000   0.000000
     3  C    0.000000   0.000000   0.000000   0.000000   0.000000   0.000000
     4  H    0.000000   0.000000   0.000000   0.000000   0.000000   0.000000
     5  C    0.000000   0.000000   0.000000   0.000000   0.000000   0.000000
     6  H    0.000000   0.000000   0.000000   0.000000   0.000000   0.000000
     7  C    4.496396   0.000000   0.000000   0.000000   0.000000   0.000000
     8  H    0.000000   0.828959   0.000000   0.000000   0.000000   0.000000
     9  H    0.000000   0.000000   0.835048   0.000000   0.000000   0.000000
    10  H    0.000000   0.000000   0.000000   0.828820   0.000000   0.000000
    11  C    0.000000   0.000000   0.000000   0.000000   4.235834   0.000000
    12  H    0.000000   0.000000   0.000000   0.000000   0.000000   0.828335
    13  C    0.000000   0.000000   0.000000   0.000000   0.000000   0.000000
    14  H    0.000000   0.000000   0.000000   0.000000   0.000000   0.000000
    15  H    0.000000   0.000000   0.000000   0.000000   0.000000   0.000000
    16  C    0.000000   0.000000   0.000000   0.000000   0.000000   0.000000
    17  C    0.000000   0.000000   0.000000   0.000000   0.000000   0.000000
    18  H    0.000000   0.000000   0.000000   0.000000   0.000000   0.000000
    19  H    0.000000   0.000000   0.000000   0.000000   0.000000   0.000000
    20  H    0.000000   0.000000   0.000000   0.000000   0.000000   0.000000
    21  O    0.000000   0.000000   0.000000   0.000000   0.000000   0.000000
    22  O    0.000000   0.000000   0.000000   0.000000   0.000000   0.000000
    23  O    0.000000   0.000000   0.000000   0.000000   0.000000   0.000000
    24  H    0.000000   0.000000   0.000000   0.000000   0.000000   0.000000
    25  H    0.000000   0.000000   0.000000   0.000000   0.000000   0.000000
    26  O    0.000000   0.000000   0.000000   0.000000   0.000000   0.000000
    27  H    0.000000   0.000000   0.000000   0.000000   0.000000   0.000000
    28  H    0.000000   0.000000   0.000000   0.000000   0.000000   0.000000
              13         14         15         16         17         18
     1  C    0.000000   0.000000   0.000000   0.000000   0.000000   0.000000
     2  H    0.000000   0.000000   0.000000   0.000000   0.000000   0.000000
     3  C    0.000000   0.000000   0.000000   0.000000   0.000000   0.000000
     4  H    0.000000   0.000000   0.000000   0.000000   0.000000   0.000000
     5  C    0.000000   0.000000   0.000000   0.000000   0.000000   0.000000
     6  H    0.000000   0.000000   0.000000   0.000000   0.000000   0.000000
     7  C    0.000000   0.000000   0.000000   0.000000   0.000000   0.000000
     8  H    0.000000   0.000000   0.000000   0.000000   0.000000   0.000000
     9  H    0.000000   0.000000   0.000000   0.000000   0.000000   0.000000
    10  H    0.000000   0.000000   0.000000   0.000000   0.000000   0.000000
    11  C    0.000000   0.000000   0.000000   0.000000   0.000000   0.000000
    12  H    0.000000   0.000000   0.000000   0.000000   0.000000   0.000000
    13  C    3.980778   0.000000   0.000000   0.000000   0.000000   0.000000
    14  H    0.000000   0.850299   0.000000   0.000000   0.000000   0.000000
    15  H    0.000000   0.000000   0.849720   0.000000   0.000000   0.000000
    16  C    0.000000   0.000000   0.000000   3.278896   0.000000   0.000000
    17  C    0.000000   0.000000   0.000000   0.000000   4.650405   0.000000
    18  H    0.000000   0.000000   0.000000   0.000000   0.000000   0.778788
    19  H    0.000000   0.000000   0.000000   0.000000   0.000000   0.000000
    20  H    0.000000   0.000000   0.000000   0.000000   0.000000   0.000000
    21  O    0.000000   0.000000   0.000000   0.000000   0.000000   0.000000
    22  O    0.000000   0.000000   0.000000   0.000000   0.000000   0.000000
    23  O    0.000000   0.000000   0.000000   0.000000   0.000000   0.000000
    24  H    0.000000   0.000000   0.000000   0.000000   0.000000   0.000000
    25  H    0.000000   0.000000   0.000000   0.000000   0.000000   0.000000
    26  O    0.000000   0.000000   0.000000   0.000000   0.000000   0.000000
    27  H    0.000000   0.000000   0.000000   0.000000   0.000000   0.000000
    28  H    0.000000   0.000000   0.000000   0.000000   0.000000   0.000000
              19         20         21         22         23         24
     1  C    0.000000   0.000000   0.000000   0.000000   0.000000   0.000000
     2  H    0.000000   0.000000   0.000000   0.000000   0.000000   0.000000
     3  C    0.000000   0.000000   0.000000   0.000000   0.000000   0.000000
     4  H    0.000000   0.000000   0.000000   0.000000   0.000000   0.000000
     5  C    0.000000   0.000000   0.000000   0.000000   0.000000   0.000000
     6  H    0.000000   0.000000   0.000000   0.000000   0.000000   0.000000
     7  C    0.000000   0.000000   0.000000   0.000000   0.000000   0.000000
     8  H    0.000000   0.000000   0.000000   0.000000   0.000000   0.000000
     9  H    0.000000   0.000000   0.000000   0.000000   0.000000   0.000000
    10  H    0.000000   0.000000   0.000000   0.000000   0.000000   0.000000
    11  C    0.000000   0.000000   0.000000   0.000000   0.000000   0.000000
    12  H    0.000000   0.000000   0.000000   0.000000   0.000000   0.000000
    13  C    0.000000   0.000000   0.000000   0.000000   0.000000   0.000000
    14  H    0.000000   0.000000   0.000000   0.000000   0.000000   0.000000
    15  H    0.000000   0.000000   0.000000   0.000000   0.000000   0.000000
    16  C    0.000000   0.000000   0.000000   0.000000   0.000000   0.000000
    17  C    0.000000   0.000000   0.000000   0.000000   0.000000   0.000000
    18  H    0.000000   0.000000   0.000000   0.000000   0.000000   0.000000
    19  H    0.768049   0.000000   0.000000   0.000000   0.000000   0.000000
    20  H    0.000000   0.777077   0.000000   0.000000   0.000000   0.000000
    21  O    0.000000   0.000000   6.476610   0.000000   0.000000   0.000000
    22  O    0.000000   0.000000   0.000000   6.586875   0.000000   0.000000
    23  O    0.000000   0.000000   0.000000   0.000000   6.678055   0.000000
    24  H    0.000000   0.000000   0.000000   0.000000   0.000000   0.657974
    25  H    0.000000   0.000000   0.000000   0.000000   0.000000   0.000000
    26  O    0.000000   0.000000   0.000000   0.000000   0.000000   0.000000
    27  H    0.000000   0.000000   0.000000   0.000000   0.000000   0.000000
    28  H    0.000000   0.000000   0.000000   0.000000   0.000000   0.000000
              25         26         27         28
     1  C    0.000000   0.000000   0.000000   0.000000
     2  H    0.000000   0.000000   0.000000   0.000000
     3  C    0.000000   0.000000   0.000000   0.000000
     4  H    0.000000   0.000000   0.000000   0.000000
     5  C    0.000000   0.000000   0.000000   0.000000
     6  H    0.000000   0.000000   0.000000   0.000000
     7  C    0.000000   0.000000   0.000000   0.000000
     8  H    0.000000   0.000000   0.000000   0.000000
     9  H    0.000000   0.000000   0.000000   0.000000
    10  H    0.000000   0.000000   0.000000   0.000000
    11  C    0.000000   0.000000   0.000000   0.000000
    12  H    0.000000   0.000000   0.000000   0.000000
    13  C    0.000000   0.000000   0.000000   0.000000
    14  H    0.000000   0.000000   0.000000   0.000000
    15  H    0.000000   0.000000   0.000000   0.000000
    16  C    0.000000   0.000000   0.000000   0.000000
    17  C    0.000000   0.000000   0.000000   0.000000
    18  H    0.000000   0.000000   0.000000   0.000000
    19  H    0.000000   0.000000   0.000000   0.000000
    20  H    0.000000   0.000000   0.000000   0.000000
    21  O    0.000000   0.000000   0.000000   0.000000
    22  O    0.000000   0.000000   0.000000   0.000000
    23  O    0.000000   0.000000   0.000000   0.000000
    24  H    0.000000   0.000000   0.000000   0.000000
    25  H    0.672756   0.000000   0.000000   0.000000
    26  O    0.000000   6.676962   0.000000   0.000000
    27  H    0.000000   0.000000   0.673484   0.000000
    28  H    0.000000   0.000000   0.000000   0.658136
 Mulliken charges:
               1
     1  C   -0.253690
     2  H    0.160297
     3  C   -0.099881
     4  H    0.168403
     5  C   -0.046478
     6  H    0.139607
     7  C   -0.496396
     8  H    0.171041
     9  H    0.164952
    10  H    0.171180
    11  C   -0.235834
    12  H    0.171665
    13  C    0.019222
    14  H    0.149701
    15  H    0.150280
    16  C    0.721104
    17  C   -0.650405
    18  H    0.221212
    19  H    0.231951
    20  H    0.222923
    21  O   -0.476610
    22  O   -0.586875
    23  O   -0.678055
    24  H    0.342026
    25  H    0.327244
    26  O   -0.676962
    27  H    0.326516
    28  H    0.341864
 Sum of Mulliken charges =   0.00000
 Mulliken charges with hydrogens summed into heavy atoms:
               1
     1  C   -0.093393
     3  C    0.068522
     5  C    0.093129
     7  C    0.010777
    11  C   -0.064170
    13  C    0.319203
    16  C    0.721104
    17  C    0.025681
    21  O   -0.476610
    22  O   -0.586875
    23  O   -0.008785
    26  O   -0.008582
 Charge=              0.0000 electrons
 Dipole moment (field-independent basis, Debye):
    X=             -1.0444    Y=             -5.4100    Z=              0.3046  Tot=              5.5183
 N-N= 4.392917673983D+02 E-N=-7.882068438655D+02  KE=-4.320737877600D+01
 D1PCM: C-PCM CHGder 1st derivatives, ID1Alg=3 FixD1E=F DoIter=F DoCFld=F I1PDM=0.
 Calling FoFJK, ICntrl=      2127 FMM=F ISym2X=0 I1Cent= 0 IOpClX= 0 NMat=1 NMatS=1 NMatT=0.
 ***** Axes restored to original set *****
 -------------------------------------------------------------------
 Center     Atomic                   Forces (Hartrees/Bohr)
 Number     Number              X              Y              Z
 -------------------------------------------------------------------
      1        6          -0.000501187   -0.000633058   -0.000085279
      2        1           0.000217021    0.000231771    0.000063220
      3        6          -0.000163860   -0.000350208   -0.000012063
      4        1           0.000594427    0.001044516   -0.000095167
      5        6           0.000582918   -0.000197758    0.000052912
      6        1          -0.000038588    0.000392880    0.000092413
      7        6          -0.001129408   -0.000278996   -0.000233478
      8        1           0.000265776    0.000121232    0.000098893
      9        1           0.000280390   -0.000021064   -0.000011445
     10        1           0.000264589    0.000140152    0.000067012
     11        6          -0.000627196   -0.001400539   -0.000036946
     12        1           0.000243141    0.000717633    0.000083932
     13        6           0.001117734    0.000727385   -0.000111706
     14        1          -0.000217210    0.000466491   -0.000224019
     15        1          -0.000176850    0.000473642    0.000286105
     16        6           0.000340734    0.005365084    0.000165969
     17        6          -0.000817142   -0.003564317   -0.000032801
     18        1           0.000300175    0.000833787   -0.000353606
     19        1           0.000811673    0.000651575   -0.000088385
     20        1           0.000427388    0.000830025    0.000380832
     21        8          -0.000593985   -0.002063094   -0.000100719
     22        8          -0.000392064   -0.003393452   -0.000190054
     23        8          -0.000091466    0.000228089    0.001367264
     24        1           0.000173828    0.000105464   -0.000340280
     25        1          -0.000481483   -0.000565881   -0.001085090
     26        8           0.000399600    0.000042639   -0.001231033
     27        1          -0.000378652   -0.000758093    0.001217475
     28        1          -0.000410304    0.000854096    0.000356046
 -------------------------------------------------------------------
 Cartesian Forces:  Max     0.005365084 RMS     0.000977925

 GradGradGradGradGradGradGradGradGradGradGradGradGradGradGradGradGradGrad
 Berny optimization.
 FormGI is forming the generalized inverse of G from B-inverse, IUseBI=4.
 Internal  Forces:  Max     0.003692495 RMS     0.000584508
 Search for a local minimum.
 Step number   1 out of a maximum of  123
 All quantities printed in internal units (Hartrees-Bohrs-Radians)
 Mixed Optimization -- En-DIIS/RFO-DIIS
 Second derivative matrix not updated -- first step.
 ITU=  0
     Eigenvalues ---    0.00230   0.00230   0.00813   0.00842   0.00910
     Eigenvalues ---    0.01048   0.01201   0.01246   0.01380   0.01390
     Eigenvalues ---    0.01749   0.01759   0.02082   0.02117   0.02122
     Eigenvalues ---    0.02126   0.02877   0.02897   0.03753   0.04026
     Eigenvalues ---    0.04536   0.06864   0.06992   0.07013   0.07166
     Eigenvalues ---    0.07284   0.07320   0.11148   0.13594   0.15998
     Eigenvalues ---    0.15998   0.15999   0.15999   0.16000   0.16000
     Eigenvalues ---    0.16000   0.16000   0.16000   0.16000   0.16000
     Eigenvalues ---    0.16000   0.16000   0.16000   0.22000   0.22000
     Eigenvalues ---    0.22000   0.22001   0.22074   0.25000   0.25000
     Eigenvalues ---    0.25000   0.25000   0.25000   0.32201   0.32986
     Eigenvalues ---    0.32993   0.33002   0.33428   0.33464   0.33551
     Eigenvalues ---    0.33562   0.33641   0.33668   0.33848   0.34389
     Eigenvalues ---    0.34540   0.34542   0.34721   0.36167   0.36504
     Eigenvalues ---    0.50882   0.52683   0.52839   0.56865   0.56872
     Eigenvalues ---    0.57121   0.57453   0.93830
 RFO step:  Lambda=-1.45752355D-04 EMin= 2.30000000D-03
 Linear search not attempted -- first point.
 Iteration  1 RMS(Cart)=  0.02279787 RMS(Int)=  0.00020894
 Iteration  2 RMS(Cart)=  0.00026887 RMS(Int)=  0.00000320
 Iteration  3 RMS(Cart)=  0.00000003 RMS(Int)=  0.00000320
 Variable       Old X    -DE/DX   Delta X   Delta X   Delta X     New X
                                 (Linear)    (Quad)   (Total)
    R1        2.06679  -0.00019   0.00000  -0.00055  -0.00055   2.06624
    R2        2.76601   0.00000   0.00000   0.00000   0.00000   2.76601
    R3        2.53294   0.00028   0.00000   0.00049   0.00049   2.53343
    R4        2.08306  -0.00119   0.00000  -0.00356  -0.00356   2.07950
    R5        2.53015  -0.00033   0.00000  -0.00057  -0.00057   2.52958
    R6        2.06426   0.00038   0.00000   0.00111   0.00111   2.06537
    R7        2.81395  -0.00029   0.00000  -0.00087  -0.00087   2.81308
    R8        2.07940   0.00016   0.00000   0.00049   0.00049   2.07989
    R9        2.07588   0.00006   0.00000   0.00019   0.00019   2.07607
   R10        2.07893   0.00023   0.00000   0.00067   0.00067   2.07961
   R11        2.06429   0.00071   0.00000   0.00204   0.00204   2.06633
   R12        2.82377   0.00004   0.00000   0.00013   0.00013   2.82390
   R13        2.09049   0.00048   0.00000   0.00146   0.00146   2.09195
   R14        2.09064   0.00052   0.00000   0.00157   0.00157   2.09221
   R15        2.77121   0.00163   0.00000   0.00449   0.00449   2.77570
   R16        2.79431  -0.00145   0.00000  -0.00418  -0.00418   2.79013
   R17        2.58986   0.00012   0.00000   0.00023   0.00023   2.59009
   R18        2.31217   0.00369   0.00000   0.00393   0.00393   2.31610
   R19        2.08076   0.00082   0.00000   0.00243   0.00243   2.08319
   R20        2.10477  -0.00092   0.00000  -0.00286  -0.00286   2.10191
   R21        2.08244   0.00084   0.00000   0.00252   0.00252   2.08496
   R22        3.72068   0.00039   0.00000   0.00866   0.00866   3.72934
   R23        3.94039  -0.00043   0.00000  -0.01143  -0.01143   3.92896
   R24        1.83804   0.00027   0.00000   0.00052   0.00052   1.83856
   R25        1.80205   0.00130   0.00000   0.00229   0.00229   1.80434
   R26        1.80211   0.00147   0.00000   0.00259   0.00259   1.80470
   R27        1.83951   0.00055   0.00000   0.00103   0.00103   1.84054
    A1        1.99418   0.00033   0.00000   0.00196   0.00195   1.99613
    A2        2.11933  -0.00018   0.00000  -0.00119  -0.00120   2.11813
    A3        2.16947  -0.00015   0.00000  -0.00065  -0.00065   2.16881
    A4        1.99960   0.00012   0.00000   0.00088   0.00088   2.00049
    A5        2.16976   0.00018   0.00000   0.00080   0.00080   2.17056
    A6        2.11366  -0.00029   0.00000  -0.00167  -0.00167   2.11199
    A7        2.12393   0.00000   0.00000   0.00006   0.00005   2.12399
    A8        2.15611   0.00002   0.00000   0.00010   0.00009   2.15620
    A9        2.00309  -0.00002   0.00000  -0.00011  -0.00011   2.00298
   A10        1.93940   0.00012   0.00000   0.00058   0.00058   1.93998
   A11        1.97774   0.00039   0.00000   0.00303   0.00303   1.98077
   A12        1.93978   0.00004   0.00000  -0.00014  -0.00014   1.93963
   A13        1.86670  -0.00015   0.00000  -0.00020  -0.00020   1.86650
   A14        1.86708  -0.00028   0.00000  -0.00292  -0.00292   1.86416
   A15        1.86756  -0.00017   0.00000  -0.00073  -0.00073   1.86683
   A16        2.13575  -0.00011   0.00000  -0.00004  -0.00004   2.13570
   A17        2.17289   0.00075   0.00000   0.00339   0.00339   2.17628
   A18        1.97453  -0.00064   0.00000  -0.00333  -0.00333   1.97120
   A19        1.95601  -0.00007   0.00000  -0.00021  -0.00022   1.95579
   A20        1.95384  -0.00003   0.00000   0.00006   0.00006   1.95391
   A21        1.85074   0.00055   0.00000   0.00320   0.00320   1.85394
   A22        1.93320  -0.00020   0.00000  -0.00322  -0.00322   1.92997
   A23        1.87983  -0.00009   0.00000   0.00052   0.00052   1.88035
   A24        1.88542  -0.00015   0.00000  -0.00002  -0.00002   1.88540
   A25        2.11115  -0.00024   0.00000  -0.00096  -0.00096   2.11019
   A26        2.21052   0.00086   0.00000   0.00345   0.00345   2.21397
   A27        1.96151  -0.00062   0.00000  -0.00249  -0.00249   1.95902
   A28        1.97362   0.00004   0.00000  -0.00072  -0.00073   1.97289
   A29        1.93549   0.00080   0.00000   0.00672   0.00671   1.94220
   A30        1.96729   0.00002   0.00000  -0.00065  -0.00066   1.96663
   A31        1.85362  -0.00025   0.00000  -0.00018  -0.00019   1.85343
   A32        1.87449  -0.00053   0.00000  -0.00627  -0.00628   1.86821
   A33        1.85150  -0.00014   0.00000   0.00094   0.00093   1.85243
   A34        2.12419  -0.00117   0.00000  -0.00466  -0.00466   2.11953
   A35        1.96926   0.00105   0.00000   0.00658   0.00658   1.97583
   A36        1.76415   0.00001   0.00000   0.00008   0.00008   1.76423
   A37        2.54971  -0.00106   0.00000  -0.00662  -0.00663   2.54309
   A38        1.85136  -0.00024   0.00000  -0.00150  -0.00150   1.84986
   A39        2.52902   0.00125   0.00000   0.00501   0.00501   2.53403
   A40        1.84406   0.00020   0.00000   0.00126   0.00126   1.84532
   A41        2.75088  -0.00024   0.00000  -0.00097  -0.00097   2.74991
    D1        0.61961   0.00001   0.00000  -0.00139  -0.00139   0.61822
    D2       -2.50296  -0.00001   0.00000  -0.00251  -0.00251  -2.50547
    D3       -2.50009  -0.00011   0.00000  -0.00733  -0.00733  -2.50742
    D4        0.66052  -0.00014   0.00000  -0.00844  -0.00845   0.65208
    D5       -3.12194  -0.00013   0.00000  -0.00631  -0.00631  -3.12825
    D6        0.00846  -0.00004   0.00000  -0.00134  -0.00134   0.00712
    D7       -0.00374   0.00001   0.00000   0.00007   0.00006  -0.00368
    D8        3.12666   0.00009   0.00000   0.00504   0.00504   3.13170
    D9       -0.00043  -0.00004   0.00000  -0.00180  -0.00180  -0.00223
   D10        3.13369   0.00003   0.00000   0.00169   0.00169   3.13538
   D11       -3.12182  -0.00006   0.00000  -0.00302  -0.00302  -3.12483
   D12        0.01230   0.00000   0.00000   0.00047   0.00048   0.01277
   D13       -2.07246  -0.00018   0.00000  -0.00435  -0.00435  -2.07681
   D14        0.02989  -0.00001   0.00000  -0.00206  -0.00205   0.02784
   D15        2.13364   0.00007   0.00000  -0.00097  -0.00097   2.13267
   D16        1.05864  -0.00010   0.00000   0.00031   0.00031   1.05895
   D17       -3.12219   0.00007   0.00000   0.00261   0.00261  -3.11958
   D18       -1.01844   0.00015   0.00000   0.00369   0.00369  -1.01475
   D19       -2.10796  -0.00018   0.00000  -0.00064  -0.00064  -2.10860
   D20        1.99081   0.00016   0.00000   0.00376   0.00377   1.99457
   D21       -0.06136   0.00001   0.00000   0.00181   0.00181  -0.05955
   D22        1.02676  -0.00012   0.00000   0.00258   0.00258   1.02934
   D23       -1.15765   0.00022   0.00000   0.00698   0.00698  -1.15068
   D24        3.07336   0.00007   0.00000   0.00503   0.00503   3.07839
   D25        3.10447   0.00008   0.00000   0.00880   0.00880   3.11326
   D26       -1.08177   0.00025   0.00000   0.01054   0.01054  -1.07123
   D27        1.00715  -0.00011   0.00000   0.00699   0.00699   1.01415
   D28        1.01332  -0.00035   0.00000  -0.00588  -0.00588   1.00743
   D29        3.09321  -0.00007   0.00000  -0.00189  -0.00189   3.09132
   D30       -1.11703   0.00031   0.00000   0.00348   0.00348  -1.11355
   D31       -2.12769  -0.00027   0.00000  -0.00233  -0.00233  -2.13001
   D32       -0.04779   0.00001   0.00000   0.00167   0.00167  -0.04613
   D33        2.02515   0.00039   0.00000   0.00704   0.00704   2.03219
   D34        0.00922   0.00007   0.00000   0.00313   0.00313   0.01235
   D35       -3.13288   0.00000   0.00000   0.00005   0.00005  -3.13283
   D36       -0.03053   0.00013   0.00000   0.00160   0.00159  -0.02894
   D37        3.10214   0.00014   0.00000   0.00367   0.00368   3.10582
   D38        3.11160   0.00020   0.00000   0.00490   0.00489   3.11649
   D39       -0.03891   0.00022   0.00000   0.00697   0.00698  -0.03193
   D40        0.39824  -0.00003   0.00000  -0.02025  -0.02025   0.37799
   D41       -2.72766  -0.00008   0.00000  -0.02405  -0.02405  -2.75170
   D42        2.39393   0.00009   0.00000   0.04406   0.04406   2.43799
   D43       -0.76240   0.00014   0.00000   0.04766   0.04766  -0.71475
   D44        1.89757  -0.00020   0.00000  -0.01393  -0.01393   1.88364
   D45       -0.15990  -0.00007   0.00000  -0.00488  -0.00488  -0.16479
         Item               Value     Threshold  Converged?
 Maximum Force            0.003692     0.000450     NO 
 RMS     Force            0.000585     0.000300     NO 
 Maximum Displacement     0.107641     0.001800     NO 
 RMS     Displacement     0.022691     0.001200     NO 
 Predicted change in Energy=-7.337977D-05
 GradGradGradGradGradGradGradGradGradGradGradGradGradGradGradGradGradGrad

                          Input orientation:                          
 ---------------------------------------------------------------------
 Center     Atomic      Atomic             Coordinates (Angstroms)
 Number     Number       Type             X           Y           Z
 ---------------------------------------------------------------------
      1          6           0        3.244193   -0.436118   -0.275296
      2          1           0        3.436382   -1.351051   -0.842304
      3          6           0        1.830044   -0.070852   -0.179358
      4          1           0        1.140203   -0.924757   -0.102535
      5          6           0        4.243043    0.258475    0.287857
      6          1           0        4.056061    1.166884    0.866094
      7          6           0        5.675480   -0.134655    0.190137
      8          1           0        6.102158   -0.331274    1.185464
      9          1           0        5.841596   -1.037453   -0.413436
     10          1           0        6.277434    0.668493   -0.261151
     11          6           0        1.371275    1.186484   -0.201205
     12          1           0        2.035343    2.050400   -0.292351
     13          6           0       -0.070935    1.567306   -0.111414
     14          1           0       -0.405075    2.141981   -0.996609
     15          1           0       -0.295280    2.122045    0.820101
     16          6           0       -2.192765    0.296753    0.029360
     17          6           0       -2.957426    1.557047    0.112578
     18          1           0       -2.790557    2.220770   -0.751631
     19          1           0       -4.052147    1.363411    0.148179
     20          1           0       -2.719508    2.139951    1.018621
     21          8           0       -0.826883    0.308230   -0.083879
     22          8           0       -2.647453   -0.841302    0.045224
     23          8           0       -5.436800   -0.390973    0.149233
     24          1           0       -4.609319   -0.892081    0.252894
     25          1           0       -5.885595   -0.776457   -0.600209
     26          8           0       -0.291149   -2.700260   -0.036918
     27          1           0       -0.633153   -3.183001    0.712767
     28          1           0       -0.914870   -1.967151   -0.185735
 ---------------------------------------------------------------------
                    Distance matrix (angstroms):
                    1          2          3          4          5
     1  C    0.000000
     2  H    1.093406   0.000000
     3  C    1.463708   2.158409   0.000000
     4  H    2.166884   2.449780   1.100426   0.000000
     5  C    1.340635   2.125686   2.479780   3.343659   0.000000
     6  H    2.128736   3.105258   2.753200   3.716911   1.092945
     7  C    2.493725   2.749385   3.863674   4.612879   1.488616
     8  H    3.211350   3.501164   4.492384   5.160635   2.147047
     9  H    2.669679   2.463194   4.132996   4.713009   2.174078
    10  H    3.228145   3.533819   4.509168   5.380962   2.146689
    11  C    2.479143   3.333881   1.338596   2.126139   3.057357
    12  H    2.764848   3.719574   2.134156   3.112694   2.901995
    13  C    3.876937   4.620853   2.510358   2.770796   4.525800
    14  H    4.525930   5.194408   3.249659   3.548540   5.177108
    15  H    4.502440   5.362023   3.213210   3.492116   4.934830
    16  C    5.494582   5.929785   4.044959   3.552205   6.441111
    17  C    6.525583   7.088696   5.065091   4.795434   7.318727
    18  H    6.610913   7.179199   5.189314   5.076076   7.375816
    19  H    7.526900   8.026670   6.063379   5.679707   8.369622
    20  H    6.623902   7.317453   5.198194   5.054384   7.249212
    21  O    4.142988   4.637224   2.685531   2.321644   5.083779
    22  O    5.914254   6.169327   4.548847   3.791455   6.981927
    23  O    8.691485   8.979880   7.281310   6.603430   9.702595
    24  H    7.884449   8.132860   6.505894   5.760590   8.926887
    25  H    9.141905   9.342806   7.759258   7.044964  10.220031
    26  O    4.204974   4.045183   3.381352   2.281554   5.423881
    27  H    4.853396   4.726035   4.068010   2.984825   5.983443
    28  H    4.432820   4.443429   3.336248   2.305826   5.637532
                    6          7          8          9         10
     6  H    0.000000
     7  C    2.184821   0.000000
     8  H    2.555971   1.100631   0.000000
     9  H    3.111983   1.098608   1.767219   0.000000
    10  H    2.540389   1.100480   1.767187   1.767313   0.000000
    11  C    2.889219   4.519374   5.158264   4.997470   4.933793
    12  H    2.491164   4.272921   4.939159   4.902760   4.461612
    13  C    4.260042   6.000741   6.587380   6.467921   6.413430
    14  H    4.931755   6.600347   7.295376   7.033476   6.882441
    15  H    4.455178   6.414010   6.861448   7.011796   6.817807
    16  C    6.364360   7.881703   8.398615   8.156416   8.483329
    17  C    7.064631   8.797439   9.316270   9.188629   9.285033
    18  H    7.113641   8.837915   9.452282   9.232793   9.212959
    19  H    8.142300   9.842392  10.346875  10.196357  10.361019
    20  H    6.846784   8.737050   9.162782   9.243331   9.205866
    21  O    5.048056   6.523186   7.073316   6.810879   7.115654
    22  O    7.045831   8.354134   8.838323   8.503692   9.056873
    23  O    9.646513  11.115311  11.585546  11.310913  11.769204
    24  H    8.927718  10.312843  10.766611  10.473144  11.010042
    25  H   10.235386  11.605818  12.128191  11.731582  12.253249
    26  O    5.887994   6.498812   6.926809   6.365317   7.385463
    27  H    6.397948   7.025981   7.329406   6.913327   7.971119
    28  H    5.969814   6.850696   7.334505   6.823930   7.660389
                   11         12         13         14         15
    11  C    0.000000
    12  H    1.093455   0.000000
    13  C    1.494342   2.168531   0.000000
    14  H    2.168193   2.541654   1.107010   0.000000
    15  H    2.166967   2.583502   1.107152   1.820134   0.000000
    16  C    3.680647   4.588646   2.477153   2.766462   2.749075
    17  C    4.355849   5.033399   2.895187   2.843754   2.811909
    18  H    4.323605   4.850699   2.869362   2.399322   2.950677
    19  H    5.437543   6.141950   3.994873   3.901006   3.891151
    20  H    4.373966   4.933080   2.935956   3.068837   2.432409
    21  O    2.370020   3.357224   1.468839   2.091326   2.095163
    22  O    4.508083   5.514025   3.530492   3.874745   3.861940
    23  O    6.997218   7.873260   5.717980   5.748658   5.761992
    24  H    6.347767   7.287456   5.174769   5.333147   5.293167
    25  H    7.528247   8.415887   6.288276   6.221777   6.455247
    26  O    4.230535   5.295903   4.273893   4.937741   4.897870
    27  H    4.893412   5.959834   4.853945   5.597269   5.316879
    28  H    3.895140   4.985563   3.634575   4.219286   4.256422
                   16         17         18         19         20
    16  C    0.000000
    17  C    1.476472   0.000000
    18  H    2.160820   1.102376   0.000000
    19  H    2.146900   1.112285   1.770969   0.000000
    20  H    2.157191   1.103312   1.773520   1.771048   0.000000
    21  O    1.370616   2.477368   2.821298   3.401410   2.855300
    22  O    1.225627   2.419235   3.167293   2.616205   3.136967
    23  O    3.318297   3.153319   3.825619   2.234978   3.813802
    24  H    2.702411   2.957476   3.742567   2.325650   3.653894
    25  H    3.896810   3.811493   4.311097   2.915587   4.598929
    26  O    3.550017   5.025539   5.565464   5.540107   5.517130
    27  H    3.874032   5.313240   5.999967   5.716480   5.725403
    28  H    2.608552   4.084237   4.623540   4.587663   4.644941
                   21         22         23         24         25
    21  O    0.000000
    22  O    2.156981   0.000000
    23  O    4.668465   2.827379   0.000000
    24  H    3.982585   1.973480   0.972924   0.000000
    25  H    5.199395   3.302477   0.954818   1.539492   0.000000
    26  O    3.056178   3.002438   5.643153   4.690425   5.942738
    27  H    3.586205   3.160154   5.584623   4.611908   5.924821
    28  H    2.279358   2.079115   4.800457   3.872612   5.128123
                   26         27         28
    26  O    0.000000
    27  H    0.955004   0.000000
    28  H    0.973973   1.537844   0.000000
 Stoichiometry    C8H16O4
 Framework group  C1[X(C8H16O4)]
 Deg. of freedom    78
 Full point group                 C1      NOp   1
 Largest Abelian subgroup         C1      NOp   1
 Largest concise Abelian subgroup C1      NOp   1
                         Standard orientation:                         
 ---------------------------------------------------------------------
 Center     Atomic      Atomic             Coordinates (Angstroms)
 Number     Number       Type             X           Y           Z
 ---------------------------------------------------------------------
      1          6           0       -3.245016    0.441180   -0.278126
      2          1           0       -3.435063    1.355374   -0.847046
      3          6           0       -1.831761    0.072579   -0.181772
      4          1           0       -1.139763    0.924917   -0.106961
      5          6           0       -4.245452   -0.249699    0.286776
      6          1           0       -4.060592   -1.157332    0.866911
      7          6           0       -5.676927    0.146807    0.188584
      8          1           0       -6.102847    0.346628    1.183598
      9          1           0       -5.840941    1.048722   -0.416881
     10          1           0       -6.281010   -0.655797   -0.260824
     11          6           0       -1.376147   -1.185945   -0.201041
     12          1           0       -2.042401   -2.048389   -0.290161
     13          6           0        0.065128   -1.570185   -0.110808
     14          1           0        0.397593   -2.147592   -0.994855
     15          1           0        0.288330   -2.123486    0.821836
     16          6           0        2.190171   -0.304652    0.026689
     17          6           0        2.951695   -1.566675    0.112412
     18          1           0        2.782936   -2.231831   -0.750328
     19          1           0        4.046907   -1.375706    0.147313
     20          1           0        2.712558   -2.147037    1.019765
     21          8           0        0.824234   -0.312950   -0.086170
     22          8           0        2.647711    0.832293    0.039993
     23          8           0        5.435949    0.375202    0.144243
     24          1           0        4.609753    0.878602    0.247045
     25          1           0        5.885509    0.757952   -0.606140
     26          8           0        0.296049    2.696966   -0.045524
     27          1           0        0.639459    3.180456    0.703035
     28          1           0        0.917892    1.961980   -0.192931
 ---------------------------------------------------------------------
 Rotational constants (GHZ):      1.8768359      0.2810502      0.2472063
 Standard basis: VSTO-6G (5D, 7F)
 There are    64 symmetry adapted cartesian basis functions of A   symmetry.
 There are    64 symmetry adapted basis functions of A   symmetry.
    64 basis functions,   384 primitive gaussians,    64 cartesian basis functions
    36 alpha electrons       36 beta electrons
       nuclear repulsion energy       438.8762900539 Hartrees.
 Integral buffers will be    131072 words long.
 Regular integral format.
 Two-electron integral symmetry is turned off.
 Nuclear repulsion after empirical dispersion term =      438.8700920241 Hartrees.
 ------------------------------------------------------------------------------
 Polarizable Continuum Model (PCM)
 =================================
 Model                : C-PCM.
 Atomic radii         : UFF (Universal Force Field).
 Polarization charges : Total charges.
 Charge compensation  : None.
 Solution method      : On-the-fly selection.
 Cavity type          : Scaled VdW (van der Waals Surface) (Alpha=1.100).
 Cavity algorithm     : GePol (No added spheres)
                        Default sphere list used, NSphG=   28.
                        Lebedev-Laikov grids with approx.  5.0 points / Ang**2.
                        Smoothing algorithm: Karplus/York (Gamma=1.0000).
                        Polarization charges: spherical gaussians, with
                                              point-specific exponents (IZeta= 3).
                        Self-potential: point-specific (ISelfS= 7).
                        Self-field    : sphere-specific E.n sum rule (ISelfD= 2).
 1st derivatives      : Analytical E(r).r(x)/FMM algorithm (CHGder, D1EAlg=3).
                        Cavity 1st derivative terms included.
 Solvent              : Water, Eps=  78.355300 Eps(inf)=   1.777849
 ------------------------------------------------------------------------------
 Do NDO integrals.
 One-electron integrals computed using PRISM.
 NBasis=    64 RedAO= F EigKep=  0.00D+00  NBF=    64
 NBsUse=    64 1.00D-04 EigRej=  0.00D+00 NBFU=    64
 Initial guess from the checkpoint file:  "PM6_2H2O_diene_pm6_cpcmtoluene_1_water.chk"
 B after Tr=     0.000000    0.000000    0.000000
         Rot=    0.999999   -0.000178   -0.000047    0.001232 Ang=  -0.14 deg.
 Overlap will be assumed to be unity.
 Keep J ints in memory in canonical form, NReq=8821532.
 Requested convergence on RMS density matrix=1.00D-08 within 128 cycles.
 Requested convergence on MAX density matrix=1.00D-06.
 Requested convergence on             energy=1.00D-06.
 No special actions if energy rises.
 Inv3:  Mode=1 IEnd=    15636267.
 Iteration    1 A*A^-1 deviation from unit magnitude is 5.00D-15 for   2252.
 Iteration    1 A*A^-1 deviation from orthogonality  is 3.39D-15 for   2267   2015.
 Iteration    1 A^-1*A deviation from unit magnitude is 5.00D-15 for   2252.
 Iteration    1 A^-1*A deviation from orthogonality  is 1.95D-15 for   2260   1950.
 Error on total polarization charges = -0.00016
 SCF Done:  E(RPM6D3) = -0.325308382276     A.U. after   12 cycles
            NFock= 11  Conv=0.74D-08     -V/T= 0.9925
 D1PCM: C-PCM CHGder 1st derivatives, ID1Alg=3 FixD1E=F DoIter=F DoCFld=F I1PDM=0.
 Calling FoFJK, ICntrl=      2127 FMM=F ISym2X=0 I1Cent= 0 IOpClX= 0 NMat=1 NMatS=1 NMatT=0.
 ***** Axes restored to original set *****
 -------------------------------------------------------------------
 Center     Atomic                   Forces (Hartrees/Bohr)
 Number     Number              X              Y              Z
 -------------------------------------------------------------------
      1        6          -0.000183038   -0.000062355   -0.000192471
      2        1           0.000054543    0.000010549    0.000158142
      3        6          -0.000082854   -0.000382223    0.000057535
      4        1           0.000100599    0.000339739   -0.000078373
      5        6           0.000303793   -0.000022017   -0.000203657
      6        1          -0.000023040    0.000051005    0.000100445
      7        6          -0.000536180   -0.000178924   -0.000010236
      8        1           0.000140659    0.000036788    0.000059959
      9        1           0.000041130    0.000057226    0.000045040
     10        1           0.000147322    0.000085425    0.000003566
     11        6          -0.000828468   -0.000464458    0.000160787
     12        1           0.000094585    0.000323695    0.000003988
     13        6           0.000824264    0.000205893   -0.000204787
     14        1          -0.000061727    0.000067702   -0.000032637
     15        1          -0.000081653    0.000002378    0.000051109
     16        6          -0.000022607    0.001446412   -0.000236414
     17        6          -0.000719182   -0.001726203    0.000168267
     18        1           0.000063216    0.000517089   -0.000237510
     19        1           0.000490361    0.000164238   -0.000016891
     20        1           0.000131673    0.000507429    0.000221467
     21        8           0.000275475   -0.000542656    0.000020171
     22        8           0.000293084   -0.000619606   -0.000072404
     23        8          -0.000041547    0.000051165    0.000964611
     24        1           0.000157909    0.000300017   -0.000333768
     25        1          -0.000260772   -0.000375584   -0.000708378
     26        8           0.000376662   -0.000097463   -0.000852390
     27        1          -0.000320244   -0.000266551    0.000652519
     28        1          -0.000333966    0.000571288    0.000512310
 -------------------------------------------------------------------
 Cartesian Forces:  Max     0.001726203 RMS     0.000411606

 GradGradGradGradGradGradGradGradGradGradGradGradGradGradGradGradGradGrad
 Berny optimization.
 Using GEDIIS/GDIIS optimizer.
 FormGI is forming the generalized inverse of G from B-inverse, IUseBI=4.
 Internal  Forces:  Max     0.000970064 RMS     0.000273115
 Search for a local minimum.
 Step number   2 out of a maximum of  123
 All quantities printed in internal units (Hartrees-Bohrs-Radians)
 Mixed Optimization -- En-DIIS/RFO-DIIS
 Swapping is turned off.
 Update second derivatives using D2CorX and points    1    2
 DE= -9.56D-05 DEPred=-7.34D-05 R= 1.30D+00
 TightC=F SS=  1.41D+00  RLast= 8.28D-02 DXNew= 5.0454D-01 2.4839D-01
 Trust test= 1.30D+00 RLast= 8.28D-02 DXMaxT set to 3.00D-01
 ITU=  1  0
     Eigenvalues ---    0.00208   0.00230   0.00794   0.00837   0.00910
     Eigenvalues ---    0.01047   0.01191   0.01229   0.01344   0.01387
     Eigenvalues ---    0.01752   0.01781   0.02075   0.02120   0.02122
     Eigenvalues ---    0.02169   0.02876   0.02895   0.03368   0.03939
     Eigenvalues ---    0.04500   0.06714   0.06874   0.06986   0.07253
     Eigenvalues ---    0.07271   0.07337   0.11140   0.13447   0.13716
     Eigenvalues ---    0.15999   0.15999   0.16000   0.16000   0.16000
     Eigenvalues ---    0.16000   0.16000   0.16000   0.16000   0.16000
     Eigenvalues ---    0.16000   0.16000   0.16233   0.21610   0.22000
     Eigenvalues ---    0.22000   0.22002   0.22839   0.23136   0.25000
     Eigenvalues ---    0.25000   0.25000   0.28508   0.31315   0.32553
     Eigenvalues ---    0.32997   0.33067   0.33405   0.33517   0.33552
     Eigenvalues ---    0.33639   0.33665   0.33808   0.33939   0.34389
     Eigenvalues ---    0.34522   0.34558   0.34962   0.36501   0.39003
     Eigenvalues ---    0.50876   0.52508   0.52847   0.55312   0.56891
     Eigenvalues ---    0.57131   0.57530   0.95670
 En-DIIS/RFO-DIIS IScMMF=        0 using points:     2    1
 RFO step:  Lambda=-2.20064240D-05.
 DidBck=F Rises=F RFO-DIIS coefs:    1.44185   -0.44185
 Iteration  1 RMS(Cart)=  0.02308639 RMS(Int)=  0.00022573
 Iteration  2 RMS(Cart)=  0.00026189 RMS(Int)=  0.00000787
 Iteration  3 RMS(Cart)=  0.00000011 RMS(Int)=  0.00000787
 Variable       Old X    -DE/DX   Delta X   Delta X   Delta X     New X
                                 (Linear)    (Quad)   (Total)
    R1        2.06624  -0.00008  -0.00025  -0.00035  -0.00060   2.06564
    R2        2.76601  -0.00005   0.00000  -0.00019  -0.00019   2.76582
    R3        2.53343   0.00007   0.00022   0.00019   0.00040   2.53383
    R4        2.07950  -0.00033  -0.00157  -0.00150  -0.00307   2.07643
    R5        2.52958   0.00002  -0.00025   0.00003  -0.00022   2.52936
    R6        2.06537   0.00010   0.00049   0.00044   0.00093   2.06629
    R7        2.81308  -0.00021  -0.00039  -0.00091  -0.00129   2.81178
    R8        2.07989   0.00010   0.00021   0.00043   0.00064   2.08053
    R9        2.07607  -0.00007   0.00008  -0.00028  -0.00020   2.07587
   R10        2.07961   0.00015   0.00030   0.00064   0.00093   2.08054
   R11        2.06633   0.00031   0.00090   0.00134   0.00224   2.06858
   R12        2.82390  -0.00071   0.00006  -0.00308  -0.00302   2.82087
   R13        2.09195   0.00008   0.00065   0.00036   0.00100   2.09295
   R14        2.09221   0.00007   0.00069   0.00031   0.00101   2.09322
   R15        2.77570   0.00004   0.00199   0.00025   0.00224   2.77794
   R16        2.79013  -0.00044  -0.00185  -0.00190  -0.00374   2.78638
   R17        2.59009   0.00018   0.00010   0.00052   0.00062   2.59071
   R18        2.31610   0.00047   0.00174   0.00079   0.00253   2.31863
   R19        2.08319   0.00050   0.00107   0.00218   0.00326   2.08645
   R20        2.10191  -0.00051  -0.00126  -0.00233  -0.00359   2.09832
   R21        2.08496   0.00048   0.00111   0.00212   0.00324   2.08819
   R22        3.72934   0.00013   0.00383   0.00441   0.00824   3.73757
   R23        3.92896  -0.00037  -0.00505  -0.01426  -0.01931   3.90965
   R24        1.83856   0.00006   0.00023   0.00017   0.00040   1.83895
   R25        1.80434   0.00083   0.00101   0.00214   0.00316   1.80750
   R26        1.80470   0.00075   0.00114   0.00195   0.00310   1.80779
   R27        1.84054   0.00028   0.00046   0.00079   0.00125   1.84179
    A1        1.99613   0.00010   0.00086   0.00089   0.00175   1.99788
    A2        2.11813  -0.00006  -0.00053  -0.00067  -0.00120   2.11693
    A3        2.16881  -0.00004  -0.00029  -0.00027  -0.00056   2.16825
    A4        2.00049   0.00010   0.00039   0.00103   0.00142   2.00191
    A5        2.17056   0.00007   0.00035   0.00046   0.00081   2.17137
    A6        2.11199  -0.00017  -0.00074  -0.00150  -0.00224   2.10976
    A7        2.12399  -0.00001   0.00002  -0.00010  -0.00008   2.12391
    A8        2.15620   0.00003   0.00004   0.00017   0.00021   2.15641
    A9        2.00298  -0.00001  -0.00005  -0.00009  -0.00014   2.00284
   A10        1.93998   0.00010   0.00025   0.00087   0.00112   1.94110
   A11        1.98077   0.00006   0.00134   0.00079   0.00213   1.98290
   A12        1.93963   0.00005  -0.00006   0.00025   0.00019   1.93982
   A13        1.86650  -0.00005  -0.00009  -0.00009  -0.00019   1.86632
   A14        1.86416  -0.00013  -0.00129  -0.00168  -0.00297   1.86119
   A15        1.86683  -0.00005  -0.00032  -0.00034  -0.00066   1.86617
   A16        2.13570   0.00020  -0.00002   0.00160   0.00158   2.13728
   A17        2.17628  -0.00013   0.00150  -0.00080   0.00070   2.17697
   A18        1.97120  -0.00007  -0.00147  -0.00081  -0.00228   1.96892
   A19        1.95579   0.00019  -0.00010   0.00180   0.00170   1.95750
   A20        1.95391   0.00023   0.00003   0.00152   0.00155   1.95545
   A21        1.85394  -0.00074   0.00141  -0.00516  -0.00375   1.85020
   A22        1.92997  -0.00009  -0.00142   0.00045  -0.00098   1.92899
   A23        1.88035   0.00026   0.00023   0.00174   0.00197   1.88232
   A24        1.88540   0.00012  -0.00001  -0.00065  -0.00066   1.88474
   A25        2.11019   0.00089  -0.00043   0.00512   0.00469   2.11489
   A26        2.21397  -0.00004   0.00152  -0.00018   0.00134   2.21531
   A27        1.95902  -0.00085  -0.00110  -0.00493  -0.00603   1.95299
   A28        1.97289   0.00021  -0.00032   0.00153   0.00120   1.97410
[...]
 ,0.00373569,0.00028357,-0.00020938,0.00003701,-0.00065181,-0.00488304,
 -0.03288452,0.00923655,0.01936653,-0.00037383,-0.01023787,-0.02080917,
 -0.00189238,0.01826343,-0.00667394,-0.03503672,0.00582458,-0.00262008,
 0.01324471,0.00115251,-0.00091576,-0.00036359,-0.00002886,-0.00049663,
 0.00058752,-0.00099733,0.00127508,0.00029042,-0.02802100,0.00888681,0.
 04315947,-0.00043425,-0.00003856,-0.00005794,-0.00005438,-0.00012539,-
 0.00004735,0.00042815,-0.00047465,0.00001595,0.00035702,-0.00035735,0.
 00002319,0.00034664,0.00008157,-0.00000741,-0.00001158,0.00015751,0.00
 011797,-0.00039722,-0.00001739,-0.00001740,0.00003395,0.00000753,0.000
 06568,0.00004271,-0.00005495,-0.00002620,0.00003467,0.00006544,-0.0000
 2167,-0.00326215,-0.00409113,0.00004496,-0.00059694,0.00090159,-0.0000
 1974,-0.00203923,0.01415813,0.00154913,-0.00057338,0.00030553,-0.00107
 559,-0.00034278,0.00043677,0.00111594,-0.11138002,-0.19990913,-0.00634
 761,0.01108154,0.00982754,0.00124593,-0.00061537,0.00082293,0.00010428
 ,0.00002386,-0.00082471,-0.00001044,-0.00080548,0.00104862,0.00008877,
 -0.09102982,-0.08288842,0.00337143,0.20636958,-0.00047862,0.00000241,-
 0.00005588,-0.00005546,-0.00010660,-0.00004348,0.00027226,-0.00040535,
 0.00001870,0.00013736,-0.00061504,0.00003498,0.00032303,0.00008308,0.0
 0001197,-0.00001035,0.00014531,0.00010627,-0.00038114,-0.00002545,-0.0
 0002444,0.00003038,0.00000563,0.00006134,0.00004552,-0.00005055,-0.000
 02381,0.00003315,0.00005856,-0.00002166,-0.00237822,-0.00245750,0.0000
 2209,-0.00040891,0.00078773,-0.00002193,0.00146391,0.01213388,0.000354
 84,0.00013980,0.00092637,-0.00095513,0.00020149,0.00081323,0.00096916,
 -0.16146205,-0.57476527,-0.01521763,0.00314925,-0.07227189,-0.00545602
 ,0.00137344,0.00045007,-0.00303434,-0.00397762,0.00039938,0.00027238,0
 .00180136,-0.00005429,0.00309780,-0.10070275,-0.04325147,0.00521284,0.
 25770783,0.67597366,0.00000975,0.00000605,0.00000507,0.00000288,0.0000
 0449,0.00000494,-0.00002090,0.00001506,-0.00003981,-0.00000679,0.00000
 603,0.00001929,-0.00000990,-0.00000153,-0.00000484,-0.00000158,-0.0000
 0683,-0.00000151,0.00001271,-0.00000036,-0.00000181,-0.00000137,-0.000
 00133,-0.00000170,-0.00000038,0.00000192,0.00000122,-0.00000176,-0.000
 00226,-0.00000002,0.00016478,0.00024690,0.00000403,0.00003024,-0.00003
 406,-0.00003727,0.00070327,-0.00090649,0.00540998,-0.00043486,-0.00070
 948,-0.00004505,0.00048544,0.00071608,-0.00010368,-0.00449856,-0.01229
 420,-0.05712869,0.00085633,-0.00574264,0.01957235,0.00149086,-0.001838
 59,-0.00087897,-0.00019080,0.00001728,-0.00004145,-0.00127478,0.001826
 60,-0.00015457,0.00258067,0.00391952,0.00947551,-0.00056584,0.01487920
 ,0.02554593,-0.00003687,0.00000325,-0.00000357,-0.00000753,-0.00001215
 ,-0.00000532,0.00001481,-0.00004206,0.00000257,0.00002480,-0.00004520,
 0.00000117,0.00002618,0.00000930,0.00000036,-0.00000066,0.00001211,0.0
 0000942,-0.00002991,-0.00000124,-0.00000046,0.00000227,0.00000033,0.00
 000517,0.00000288,-0.00000479,-0.00000252,0.00000228,0.00000520,-0.000
 00223,-0.00019279,-0.00021498,0.00000437,-0.00003638,0.00007002,-0.000
 00364,0.00022398,0.00087947,0.00005169,0.00000038,0.00004639,-0.000101
 34,0.00001351,0.00004270,0.00009336,0.00454363,0.00398158,-0.00024456,
 -0.00296722,-0.00282229,-0.00014164,0.00008951,0.00045069,-0.00032290,
 0.00099681,0.00099842,0.00028301,0.00010022,0.00039845,0.00037979,-0.0
 0246200,-0.00110026,0.00017174,-0.01052562,-0.00329865,0.00046820,0.22
 747733,-0.00001126,-0.00000257,-0.00000139,-0.00000032,-0.00000184,-0.
 00000063,-0.00000026,-0.00000933,0.00000055,0.00001044,-0.00000774,0.0
 0000075,0.00000689,0.00000096,0.00000094,-0.00000080,0.00000383,0.0000
 0213,-0.00000930,-0.00000177,-0.00000138,0.00000057,0.00000006,0.00000
 145,0.00000158,-0.00000097,-0.00000041,0.00000090,0.00000132,-0.000000
 69,-0.00004320,-0.00004157,0.00000333,-0.00000520,0.00001849,-0.000001
 11,0.00010470,0.00019705,0.00000382,0.00000910,0.00001829,-0.00003036,
 0.00001225,0.00001114,0.00002400,0.00151309,-0.00072709,-0.00016091,-0
 .00314052,-0.00159352,0.00007666,0.00003075,0.00029396,-0.00025839,0.0
 0207017,0.00088903,-0.00007285,0.00010669,0.00025751,0.00023370,-0.000
 68400,-0.00004733,0.00005907,0.00085876,0.00105488,-0.00011558,-0.0325
 0344,0.08413379,-0.00001232,-0.00000012,-0.00000151,-0.00000140,-0.000
 00257,0.00000002,0.00000482,-0.00001292,-0.00000305,0.00000935,-0.0000
 1129,0.00000334,0.00000955,0.00000259,-0.00000157,-0.00000107,0.000004
 15,0.00000403,-0.00001029,-0.00000147,-0.00000186,0.00000077,0.0000000
 3,0.00000210,0.00000144,-0.00000122,-0.00000040,0.00000063,0.00000182,
 -0.00000060,-0.00006074,-0.00006667,-0.00001000,-0.00001042,0.00002185
 ,0.00000198,0.00008129,0.00026890,0.00001999,-0.00000877,0.00000548,-0
 .00002796,0.00000530,0.00002027,0.00003307,0.00148991,0.00136950,0.000
 11996,-0.00067271,-0.00062928,-0.00023587,0.00005174,0.00010908,-0.000
 03410,0.00060810,0.00036958,-0.00020897,-0.00003019,0.00008854,0.00016
 009,-0.00077616,-0.00038483,0.00003645,-0.00286375,-0.00116117,0.00043
 018,0.08294640,0.07491671,0.13182035,0.00007610,-0.00000071,0.00000916
 ,0.00001166,0.00002177,0.00000841,-0.00003814,0.00007833,-0.00000364,-
 0.00005213,0.00007670,-0.00000406,-0.00005527,-0.00001571,0.00000020,0
 .00000133,-0.00002494,-0.00001919,0.00006399,0.00000232,0.00000240,-0.
 00000538,-0.00000103,-0.00001070,-0.00000664,0.00000931,0.00000451,-0.
 00000550,-0.00001057,0.00000376,0.00039733,0.00045194,-0.00000552,0.00
 007044,-0.00013316,0.00000433,-0.00039110,-0.00178928,-0.00009311,0.00
 003961,-0.00007403,0.00017705,0.00001860,-0.00006848,-0.00017760,-0.01
 021214,-0.01358894,0.00008205,-0.00009656,0.00214916,0.00015917,0.0000
 1281,-0.00036155,0.00026691,0.00102926,-0.00015550,-0.00008183,-0.0000
 2191,-0.00033038,-0.00033811,0.00454434,0.00293987,-0.00021233,0.00643
 469,0.01009650,-0.00002721,-0.15745849,0.04579755,-0.03225698,0.191230
 90,0.00001353,0.00000289,0.00000090,0.00000088,0.00000232,0.00000129,0
 .00000063,0.00001201,-0.00000092,-0.00001366,0.00000913,0.00000006,-0.
 00000822,-0.00000165,-0.00000081,0.00000066,-0.00000449,-0.00000261,0.
 00001081,0.00000186,0.00000099,-0.00000076,-0.00000029,-0.00000160,-0.
 00000159,0.00000112,0.00000068,-0.00000100,-0.00000167,0.00000078,0.00
 004984,0.00004771,-0.00000226,0.00000602,-0.00002048,0.00000120,-0.000
 12942,-0.00022878,-0.00000576,-0.00000479,-0.00001796,0.00003053,-0.00
 000720,-0.00001350,-0.00002693,-0.00470449,-0.00073910,0.00029331,0.00
 107218,0.00110325,0.00000767,-0.00003333,-0.00026774,0.00016536,-0.000
 57208,-0.00174062,-0.00007090,-0.00006891,-0.00024664,-0.00018609,0.00
 088425,-0.00005708,-0.00008869,-0.00001122,-0.00114996,0.00002426,0.07
 781641,-0.03667369,0.00245705,-0.05668612,0.03897256,0.00000046,-0.000
 00045,0.00000021,-0.00000036,-0.00000015,-0.00000093,-0.00000041,0.000
 00024,0.00000155,-0.00000009,0.,-0.00000176,-0.00000098,-0.00000012,0.
 00000126,0.00000043,0.00000006,-0.00000077,0.00000077,0.00000014,0.000
 00090,-0.00000010,0.00000022,-0.00000036,-0.00000030,0.00000004,-0.000
 00021,0.00000004,-0.00000007,0.,-0.00000066,-0.00000198,0.00000747,-0.
 00000023,0.00000042,-0.00000254,0.00000398,0.00000435,0.00006839,-0.00
 000239,-0.00000264,-0.00000347,0.00000280,0.00000424,-0.00000252,0.000
 14254,0.00004940,0.00003203,-0.00007368,-0.00002996,0.00005037,-0.0000
 2925,0.00002793,-0.00002719,0.00009863,0.00016337,0.00011524,0.0000368
 6,0.00000235,-0.00002532,-0.00001207,-0.00001739,0.00011634,0.00128420
 ,0.00007732,-0.00103646,-0.00101930,-0.01361723,-0.01713271,0.03908468
 ,0.00618859,0.03102831,0.00000163,-0.00000160,0.00000006,0.00000122,0.
 00000148,0.00000075,-0.00000056,0.00000352,-0.00000048,0.00000011,0.00
 000590,0.,-0.00000104,-0.00000113,-0.00000027,0.,-0.00000048,-0.000000
 51,0.00000086,-0.00000023,-0.00000025,0.00000006,0.00000010,-0.0000002
 5,0.00000009,0.00000042,0.00000023,0.00000006,-0.00000022,0.00000021,0
 .00001327,0.00001556,-0.00000079,0.00000393,-0.00000543,0.00000054,-0.
 00001154,-0.00006578,-0.00000415,-0.00000264,-0.00000606,0.00000884,-0
 .00000264,-0.00000460,-0.00000765,-0.00071982,-0.00025272,0.00004624,0
 .00017979,0.00020446,0.00001912,-0.00001884,-0.00005127,0.00003563,-0.
 00016318,-0.00029169,-0.00002136,-0.00002383,-0.00004480,-0.00003649,0
 .00025315,0.00004771,-0.00002221,0.00049425,0.00006396,0.00009137,-0.0
 6004972,-0.01414548,-0.04856524,-0.03514863,-0.01755202,-0.03952091,0.
 09521025,0.00000627,-0.00000019,0.00000141,0.00000062,0.00000205,0.000
 00032,-0.00000378,0.00000525,-0.00000021,-0.00000341,0.00000738,-0.000
 00118,-0.00000443,-0.00000098,-0.00000026,0.00000030,-0.00000191,-0.00
 000154,0.00000542,-0.00000004,0.00000077,-0.00000034,0.00000020,-0.000
 00100,-0.00000072,0.00000090,0.00000019,-0.00000051,-0.00000070,0.0000
 0033,0.00003192,0.00003685,-0.00000118,0.00000586,-0.00001060,0.000000
 18,-0.00002663,-0.00014605,-0.00000751,0.00000340,-0.00000750,0.000014
 73,0.00000176,-0.00000543,-0.00001431,-0.00071004,-0.00085753,0.000022
 68,-0.00004689,0.00027170,-0.00005073,0.00002469,-0.00003315,0.0000361
 6,0.00023338,-0.00002483,0.00002804,-0.00002043,-0.00003476,-0.0000104
 9,0.00037864,0.00022478,-0.00001682,0.00137581,0.00053997,-0.00000632,
 -0.04438930,-0.04775339,-0.07730203,0.01111437,0.00096736,0.00715810,0
 .03205144,0.04678615,0.00000843,0.00000037,0.00000055,0.00000121,0.000
 00192,0.00000071,-0.00000277,0.00000969,0.00000050,-0.00000729,0.00000
 806,-0.00000082,-0.00000611,-0.00000192,0.00000059,0.00000056,-0.00000
 297,-0.00000244,0.00000685,0.00000121,0.00000062,-0.00000048,-0.000000
 14,-0.00000127,-0.00000087,0.00000081,0.00000047,-0.00000040,-0.000001
 32,0.00000056,0.00004523,0.00005166,0.00000226,0.00000792,-0.00001676,
 -0.00000008,-0.00005927,-0.00020429,-0.00001543,0.00000498,-0.00000837
 ,0.00002359,-0.00000190,-0.00001333,-0.00002364,-0.00128584,-0.0010250
 9,0.00001068,0.00048260,0.00054769,0.00013687,-0.00002211,-0.00009350,
 0.00005394,-0.00036752,-0.00055658,-0.00009392,0.00000630,-0.00007251,
 -0.00009596,0.00060701,0.00027811,-0.00004497,0.00181391,0.00075040,-0
 .00002064,-0.08253812,-0.06106986,-0.11498242,-0.00661578,-0.00878345,
 -0.01317164,0.08797042,0.07015216,0.12822204,-0.00001368,-0.00009638,-
 0.00002197,0.00001601,-0.00007544,0.00000375,-0.00116722,-0.00163097,0
 .00014328,0.00035578,0.00149448,-0.00017773,0.00002146,0.00002148,-0.0
 0001168,0.00000117,0.00002375,0.00003423,-0.00006792,0.00002261,-0.000
 03428,-0.00000177,-0.00000149,0.00001833,0.00000041,-0.00001758,-0.000
 00079,0.00000633,0.00001413,-0.00000170,-0.00029607,-0.00001345,0.0000
 0299,0.00011525,0.00001275,0.00001376,-0.00028704,-0.00021001,-0.00001
 456,0.00001780,0.00003494,-0.00000477,0.00002388,0.00003987,0.00000782
 ,-0.00112098,-0.00147370,-0.00010366,0.00005900,0.00027767,0.00005766,
 -0.00001368,-0.00002681,0.00004126,0.00006449,-0.00001144,-0.00001150,
 -0.00002130,-0.00001077,-0.00005479,0.00107071,0.00105434,0.00009223,-
 0.00297713,0.00384137,0.00033095,-0.00002317,-0.00007421,-0.00001781,0
 .00016033,0.00008660,-0.00001687,-0.00002101,0.00001659,0.00001772,0.1
 1500532,-0.00014594,-0.00028014,0.00002173,0.00001525,-0.00005572,-0.0
 0004071,-0.00138329,-0.00181822,0.00015041,0.00104894,0.00093519,-0.00
 013846,0.00011306,0.00003379,0.00000577,-0.00000888,0.00008098,0.00005
 277,-0.00020991,-0.00001061,-0.00004354,0.00001127,0.00000647,0.000034
 44,0.00002619,-0.00002670,-0.00001410,0.00002209,0.00003065,-0.0000123
 3,-0.00057030,-0.00021547,0.00002291,0.00014304,0.00012885,0.00000072,
 0.00110176,0.00042494,-0.00004844,-0.00011281,-0.00002588,-0.00017595,
 -0.00008647,-0.00003085,0.00019599,-0.00066050,0.00287272,0.00027805,0
 .00051558,-0.00088269,-0.00016486,-0.00001516,0.00013682,-0.00014924,-
 0.00020815,-0.00001192,0.00001437,0.00001602,0.00010323,0.00019357,-0.
 00015998,-0.00394356,0.00024438,0.00594520,-0.00524250,-0.00039778,0.0
 0022326,0.00003745,0.00006038,-0.00048606,-0.00005330,0.00000445,-0.00
 001150,-0.00003626,-0.00004334,-0.07090032,0.18733386,0.00004124,0.000
 06716,-0.00002180,0.00001803,0.00001186,0.00001905,0.00028067,0.000361
 01,0.00008593,-0.00057102,-0.00053534,-0.00039162,-0.00003251,-0.00001
 135,-0.00003470,-0.00000550,-0.00002668,-0.00000260,0.00004890,0.00000
 153,0.00000861,-0.00000248,-0.00000627,-0.00000707,-0.00000269,0.00000
 494,0.00000415,-0.00000755,-0.00000688,-0.00000007,0.00014018,0.000075
 22,-0.00006119,-0.00001805,-0.00003580,0.00003507,-0.00047299,-0.00024
 692,-0.00018719,0.00004040,0.00001899,0.00006891,0.00004755,0.00002580
 ,-0.00004439,0.00001598,-0.00166581,0.00001268,-0.00017663,0.00045282,
 0.00009606,0.00000478,-0.00008025,0.00007238,0.00009132,-0.00000291,0.
 00000698,-0.00002125,-0.00004054,-0.00005292,0.00050969,0.00102188,0.0
 0035133,-0.00200803,0.00224808,0.00025520,-0.00010054,-0.00002309,-0.0
 0010969,0.00021004,0.00000930,0.00006853,-0.00000059,0.00003093,0.0000
 4783,-0.04433248,-0.10273885,0.14624606,0.00001525,-0.00001289,0.00002
 227,-0.00000423,0.00000441,-0.00001988,-0.00002331,-0.00004814,0.00000
 123,0.00003621,0.00009356,-0.00001737,-0.00000075,-0.00000110,0.000009
 34,0.00000099,0.00000419,-0.00000666,-0.00000022,-0.00000518,0.0000060
 5,0.00000054,0.00000271,-0.00000262,0.00000074,0.00000192,-0.00000336,
 0.00000063,-0.00000126,-0.00000120,0.00000837,0.00001898,0.00001037,0.
 00000054,-0.00001066,-0.00001211,-0.00014670,-0.00007367,0.00001120,0.
 00001889,0.00000996,0.00001589,0.00001489,0.00000983,-0.00001680,0.000
 03798,-0.00048756,0.00001307,-0.00006001,0.00012008,0.00000760,0.00000
 451,-0.00001678,0.00001974,0.00002419,-0.00000283,0.00000596,-0.000003
 39,-0.00001309,-0.00001513,0.00012147,0.00033194,-0.00005720,-0.000551
 37,0.00057500,0.00001508,-0.00004497,0.00002344,-0.00003451,0.00006696
 ,-0.00003428,0.00003060,0.00000853,0.00000651,0.00001351,-0.03213837,-
 0.03142266,0.06209761,0.03219280,0.00001199,-0.00000054,0.00000296,0.0
 0000876,0.00001845,0.00000184,0.00000429,0.00002572,-0.00001569,-0.000
 26644,-0.00021075,0.00002031,-0.00000826,-0.00001067,0.00000139,0.0000
 0041,-0.00000441,-0.00000688,0.00001307,-0.00000178,0.00000220,-0.0000
 0015,0.00000062,-0.00000325,-0.00000025,0.00000386,0.00000110,-0.00000
 062,-0.00000255,0.00000103,0.00006309,0.00003858,0.00000124,-0.0000094
 1,-0.00001839,-0.00000468,-0.00016193,-0.00008719,0.00003470,0.0000189
 8,0.00000761,0.00002617,0.00001288,0.00000806,-0.00003247,0.00018247,-
 0.00062289,-0.00004430,-0.00008931,0.00014816,0.00002187,0.00000389,-0
 .00001587,0.00002535,0.00003337,0.00000401,-0.00000270,-0.00000034,-0.
 00001347,-0.00003575,0.00008539,0.00039032,-0.00009889,-0.00057398,0.0
 0066978,-0.00007003,-0.00001450,-0.00000539,-0.00000237,0.00005291,0.0
 0000796,-0.00000351,-0.00000471,0.00000227,0.00000255,-0.00345371,-0.0
 6471129,0.06533174,0.01058763,0.09549021,-0.00002692,-0.00004025,0.000
 00218,-0.00001224,-0.00001662,-0.00000917,-0.00017725,-0.00024150,0.00
 002585,0.00059097,0.00052338,-0.00008202,0.00001759,0.00001040,0.00000
 892,0.00000152,0.00001483,0.00000736,-0.00003123,-0.00000066,-0.000005
 99,0.00000099,0.00000268,0.00000541,0.00000149,-0.00000434,-0.00000271
 ,0.00000353,0.00000527,-0.00000088,-0.00011839,-0.00005779,0.00001660,
 0.00001706,0.00002734,-0.00001180,0.00032346,0.00018153,0.00005887,-0.
 00003113,-0.00001513,-0.00004697,-0.00002952,-0.00001627,0.00004047,-0
 .00009527,0.00113251,0.00001324,0.00013574,-0.00030953,-0.00006776,-0.
 00000312,0.00005138,-0.00004633,-0.00006315,-0.00000055,-0.00000120,0.
 00001266,0.00002944,0.00004439,-0.00030917,-0.00063275,0.00003017,0.00
 115892,-0.00135081,0.00005045,0.00006279,0.00002028,0.00005127,-0.0001
 3412,-0.00001523,-0.00002892,0.00000041,-0.00001885,-0.00002365,0.0352
 1226,0.09332616,-0.12651518,-0.04258049,-0.10209999,0.14207244,0.00005
 152,0.00011975,-0.00001052,0.00000907,0.00003330,0.00000865,0.00009792
 ,0.00016366,-0.00001348,-0.00131317,-0.00100270,0.00001004,0.00000017,
 -0.00001872,-0.00000063,-0.00000166,-0.00001351,-0.00001487,0.00003951
 ,-0.00000672,0.00001727,0.00000114,-0.00000114,-0.00000852,-0.00000076
 ,0.00000777,0.00000262,-0.00000327,-0.00000727,0.00000201,0.00010313,-
 0.00007362,-0.00000887,-0.00010638,0.00002699,-0.00000410,0.00035492,0
 .00079668,0.00003648,-0.00000982,0.00001617,-0.00005323,-0.00000744,0.
 00000763,0.00004835,0.00453024,0.00988491,0.00011583,-0.00014590,-0.00
 151680,-0.00014873,0.00003747,0.00012849,-0.00018279,-0.00029886,0.000
 08236,0.00002096,0.00006912,0.00008994,0.00020237,-0.00283240,-0.00124
 149,0.00008521,-0.00005086,-0.00810130,-0.00020791,0.00031690,0.000070
 64,0.00011223,-0.00066705,-0.00011260,-0.00000784,-0.00000349,-0.00005
 016,-0.00007788,-0.07876938,0.09720056,-0.01579479,0.00042019,-0.00649
 552,0.00607313,0.07817950,0.00017338,0.00009732,-0.00000235,0.00000234
 ,0.00002023,0.00002007,-0.00017284,-0.00006666,0.00001390,-0.00011777,
 0.00033359,-0.00005464,-0.00009274,-0.00002030,-0.00000756,0.00000663,
 -0.00005037,-0.00003010,0.00013362,0.00001357,0.00001456,-0.00001055,-
 0.00000375,-0.00001957,-0.00001883,0.00001468,0.00000897,-0.00001349,-
 0.00001860,0.00000791,0.00038041,0.00032739,-0.00001441,-0.00001218,-0
 .00015197,0.00000519,-0.00235199,-0.00106570,0.00006179,0.00023079,0.0
 0014402,0.00023412,0.00020766,0.00015775,-0.00024375,0.00272203,-0.010
 87467,-0.00058632,-0.00081505,0.00173557,0.00024307,-0.00000272,-0.000
 25468,0.00027134,0.00038635,0.00000048,-0.00002195,-0.00004685,-0.0002
 0479,-0.00032674,0.00184473,0.00238336,-0.00012908,-0.00433379,0.00635
 306,0.00046418,-0.00048869,-0.00005211,-0.00012004,0.00093583,0.000089
 03,-0.00000792,0.00004528,0.00006876,0.00008903,0.07105619,-0.11478002
 ,0.03575897,0.02034013,-0.03111016,0.00949555,-0.08998795,0.14691502,-
 0.00000510,-0.00000815,-0.00000870,0.00000148,0.00001512,0.00000284,0.
 00002472,0.00003995,-0.00003346,-0.00019424,-0.00017349,0.00006796,0.0
 0000428,-0.00000353,0.00001189,0.00000172,0.00000263,-0.00000399,-0.00
 000207,-0.00000137,-0.00000341,0.00000022,0.00000123,0.00000067,0.0000
 0053,0.00000136,0.00000144,0.00000164,0.00000015,0.00000153,0.00002305
 ,-0.00000338,0.00001190,-0.00000741,0.00000096,-0.00001514,0.00009036,
 0.00001217,0.00009007,0.00000098,0.00000336,-0.00001375,-0.00001807,-0
 .00002009,-0.00000482,0.00012393,0.00001722,0.00054328,0.00002050,-0.0
 0006654,0.00013018,0.00000570,0.00000375,-0.00001971,-0.00001036,0.000
 00255,-0.00000763,-0.00000334,0.00001685,-0.00000753,-0.00022255,-0.00
 027140,-0.00074972,0.00106810,-0.00075284,-0.00127772,0.00000495,0.000
 01104,0.00006729,-0.00003175,0.00000299,-0.00005515,0.00000780,-0.0000
 1378,-0.00002439,0.00882829,0.00936114,-0.01995045,-0.01951244,0.03694
 614,-0.01558512,0.00979925,-0.04512406,0.03683182\\-0.00000174,0.00000
 124,-0.00000459,0.00000022,0.00000247,-0.00000606,0.00000067,-0.000001
 08,-0.00000335,-0.00000035,0.00000026,-0.00000313,0.00000270,0.0000032
 1,-0.00000364,-0.00000017,0.00000101,-0.00000131,0.00000039,0.00000166
 ,-0.00000649,0.00000200,0.00000122,-0.00000630,0.00000009,0.00000458,-
 0.00000834,0.00000024,0.00000492,-0.00000428,-0.00000212,0.00000501,0.
 00000127,-0.00000110,0.00000112,0.00000337,-0.00000486,-0.00000616,-0.
 00000226,-0.00000216,0.00000259,0.00000652,-0.00000084,-0.00000149,0.0
 0000537,-0.00001288,0.00000170,-0.00000379,0.00000131,-0.00001293,0.00
 001057,-0.00000180,0.00000321,0.00000914,-0.00000059,-0.00000421,0.000
 00741,0.00000210,0.00000053,0.00000568,0.00000692,0.00000247,0.0000082
 5,-0.00000100,0.00000065,0.00000760,-0.00000937,-0.00000583,-0.0000051
 1,0.00001183,-0.00000640,-0.00000585,0.00000486,0.00000402,0.00001666,
 -0.00000009,0.00001049,-0.00000078,-0.00000031,-0.00000577,-0.00000377
 ,0.00000604,-0.00000851,-0.00001281\\\@


 ONLY THE DAY DAWNS TO WHICH YOU ARE AWAKE.

                                 -- THOREAU
 Job cpu time:       0 days  0 hours  0 minutes 33.6 seconds.
 File lengths (MBytes):  RWF=     99 Int=      0 D2E=      0 Chk=     11 Scr=      1
 Normal termination of Gaussian 09 at Tue Aug 18 03:56:01 2020.
