 Entering Gaussian System, Link 0=g09
 Input=PM6_2H2O_dienophile_pm6_cpcmtoluene_1_water.com
 Output=PM6_2H2O_dienophile_pm6_cpcmtoluene_1_water.log
 Initial command:
 /apps/applications/gaussian/G09.D01/2/default/g09/l1.exe "/local/702245.1.40core-192G.q/Gau-224715.inp" -scrdir="/local/702245.1.40core-192G.q/"
 Entering Link 1 = /apps/applications/gaussian/G09.D01/2/default/g09/l1.exe PID=    224716.
  
 Copyright (c) 1988,1990,1992,1993,1995,1998,2003,2009,2013,
            Gaussian, Inc.  All Rights Reserved.
  
 This is part of the Gaussian(R) 09 program.  It is based on
 the Gaussian(R) 03 system (copyright 2003, Gaussian, Inc.),
 the Gaussian(R) 98 system (copyright 1998, Gaussian, Inc.),
 the Gaussian(R) 94 system (copyright 1995, Gaussian, Inc.),
 the Gaussian 92(TM) system (copyright 1992, Gaussian, Inc.),
 the Gaussian 90(TM) system (copyright 1990, Gaussian, Inc.),
 the Gaussian 88(TM) system (copyright 1988, Gaussian, Inc.),
 the Gaussian 86(TM) system (copyright 1986, Carnegie Mellon
 University), and the Gaussian 82(TM) system (copyright 1983,
 Carnegie Mellon University). Gaussian is a federally registered
 trademark of Gaussian, Inc.
  
 This software contains proprietary and confidential information,
 including trade secrets, belonging to Gaussian, Inc.
  
 This software is provided under written license and may be
 used, copied, transmitted, or stored only in accord with that
 written license.
  
 The following legend is applicable only to US Government
 contracts under FAR:
  
                    RESTRICTED RIGHTS LEGEND
  
 Use, reproduction and disclosure by the US Government is
 subject to restrictions as set forth in subparagraphs (a)
 and (c) of the Commercial Computer Software - Restricted
 Rights clause in FAR 52.227-19.
  
 Gaussian, Inc.
 340 Quinnipiac St., Bldg. 40, Wallingford CT 06492
  
  
 ---------------------------------------------------------------
 Warning -- This program may not be used in any manner that
 competes with the business of Gaussian, Inc. or will provide
 assistance to any competitor of Gaussian, Inc.  The licensee
 of this program is prohibited from giving any competitor of
 Gaussian, Inc. access to this program.  By using this program,
 the user acknowledges that Gaussian, Inc. is engaged in the
 business of creating and licensing software in the field of
 computational chemistry and represents and warrants to the
 licensee that it is not a competitor of Gaussian, Inc. and that
 it will not use this program in any manner prohibited above.
 ---------------------------------------------------------------
  

 Cite this work as:
 Gaussian 09, Revision D.01,
 M. J. Frisch, G. W. Trucks, H. B. Schlegel, G. E. Scuseria, 
 M. A. Robb, J. R. Cheeseman, G. Scalmani, V. Barone, B. Mennucci, 
 G. A. Petersson, H. Nakatsuji, M. Caricato, X. Li, H. P. Hratchian, 
 A. F. Izmaylov, J. Bloino, G. Zheng, J. L. Sonnenberg, M. Hada, 
 M. Ehara, K. Toyota, R. Fukuda, J. Hasegawa, M. Ishida, T. Nakajima, 
 Y. Honda, O. Kitao, H. Nakai, T. Vreven, J. A. Montgomery, Jr., 
 J. E. Peralta, F. Ogliaro, M. Bearpark, J. J. Heyd, E. Brothers, 
 K. N. Kudin, V. N. Staroverov, T. Keith, R. Kobayashi, J. Normand, 
 K. Raghavachari, A. Rendell, J. C. Burant, S. S. Iyengar, J. Tomasi, 
 M. Cossi, N. Rega, J. M. Millam, M. Klene, J. E. Knox, J. B. Cross, 
 V. Bakken, C. Adamo, J. Jaramillo, R. Gomperts, R. E. Stratmann, 
 O. Yazyev, A. J. Austin, R. Cammi, C. Pomelli, J. W. Ochterski, 
 R. L. Martin, K. Morokuma, V. G. Zakrzewski, G. A. Voth, 
 P. Salvador, J. J. Dannenberg, S. Dapprich, A. D. Daniels, 
 O. Farkas, J. B. Foresman, J. V. Ortiz, J. Cioslowski, 
 and D. J. Fox, Gaussian, Inc., Wallingford CT, 2013.
 
 ******************************************
 Gaussian 09:  ES64L-G09RevD.01 24-Apr-2013
                18-Aug-2020 
 ******************************************
 %nprocshared=4
 Will use up to    4 processors via shared memory.
 %chk=PM6_2H2O_dienophile_pm6_cpcmtoluene_1_water.chk
 ----------------------------------------------------------------------
 # opt freq pm6 scrf=(cpcm,solvent=water) geom=connectivity empiricaldi
 spersion=gd3
 ----------------------------------------------------------------------
 1/14=-1,18=20,19=15,26=1,38=1,57=2/1,3;
 2/9=110,12=2,17=6,18=5,40=1/2;
 3/5=2,16=1,25=1,41=3900000,70=2101,71=1,72=1,124=31/1,2,3;
 4/35=1/1;
 5/5=2,35=1,38=5,53=1/2;
 6/7=2,8=2,9=2,10=2,28=1/1;
 7//1,2,3,16;
 1/14=-1,18=20,19=15,26=1/3(2);
 2/9=110/2;
 99//99;
 2/9=110/2;
 3/5=2,16=1,25=1,41=3900000,70=2105,71=1,72=1,124=31,135=20/1,2,3;
 4/5=5,16=3,35=1/1;
 5/5=2,35=1,38=5,53=1/2;
 7//1,2,3,16;
 1/14=-1,18=20,19=15,26=1/3(-5);
 2/9=110/2;
 6/7=2,8=2,9=2,10=2,19=2,28=1/1;
 99/9=1/99;
 -------------------
 Title Card Required
 -------------------
 Symbolic Z-matrix:
 Charge =  0 Multiplicity = 1
 C                     1.1779   -0.36839   0.02536 
 C                     0.66795   1.0592    0.07632 
 C                    -0.66858   1.0593    0.07635 
 C                    -1.17845  -0.36786   0.02534 
 H                     1.37574   1.88473   0.10473 
 H                    -1.37627   1.88498   0.10488 
 C                     0.00212  -2.65839  -0.04298 
 H                    -1.00989  -3.03716  -0.27502 
 H                     0.69949  -3.02465  -0.81757 
 H                     0.31486  -3.07306   0.93229 
 N                    -0.00054  -1.18567  -0.00701 
 O                    -2.31112  -0.78503   0.00614 
 O                     2.31073  -0.78438   0.00659 
 O                    -3.61343   1.77012   0.00635 
 H                    -4.23578   1.96486  -0.68986 
 H                    -3.61074   0.80685   0.10782 
 O                     3.61305   1.77127   0.00608 
 H                     3.61014   0.80796   0.10722 
 H                     4.23677   1.96621  -0.68888 
 
 Add virtual bond connecting atoms H16        and O12        Dist= 3.89D+00.
 Add virtual bond connecting atoms H18        and O13        Dist= 3.89D+00.

 GradGradGradGradGradGradGradGradGradGradGradGradGradGradGradGradGradGrad
 Berny optimization.
 Initialization pass.
                           ----------------------------
                           !    Initial Parameters    !
                           ! (Angstroms and Degrees)  !
 --------------------------                            --------------------------
 ! Name  Definition              Value          Derivative Info.                !
 --------------------------------------------------------------------------------
 ! R1    R(1,2)                  1.5168         estimate D2E/DX2                !
 ! R2    R(1,11)                 1.4345         estimate D2E/DX2                !
 ! R3    R(1,13)                 1.2069         estimate D2E/DX2                !
 ! R4    R(2,3)                  1.3365         estimate D2E/DX2                !
 ! R5    R(2,5)                  1.0878         estimate D2E/DX2                !
 ! R6    R(3,4)                  1.5164         estimate D2E/DX2                !
 ! R7    R(3,6)                  1.0878         estimate D2E/DX2                !
 ! R8    R(4,11)                 1.4343         estimate D2E/DX2                !
 ! R9    R(4,12)                 1.2072         estimate D2E/DX2                !
 ! R10   R(7,8)                  1.1052         estimate D2E/DX2                !
 ! R11   R(7,9)                  1.1047         estimate D2E/DX2                !
 ! R12   R(7,10)                 1.1049         estimate D2E/DX2                !
 ! R13   R(7,11)                 1.4732         estimate D2E/DX2                !
 ! R14   R(12,16)                2.0575         estimate D2E/DX2                !
 ! R15   R(13,18)                2.0577         estimate D2E/DX2                !
 ! R16   R(14,15)                0.9539         estimate D2E/DX2                !
 ! R17   R(14,16)                0.9686         estimate D2E/DX2                !
 ! R18   R(17,18)                0.9686         estimate D2E/DX2                !
 ! R19   R(17,19)                0.9539         estimate D2E/DX2                !
 ! A1    A(2,1,11)             105.1175         estimate D2E/DX2                !
 ! A2    A(2,1,13)             129.8277         estimate D2E/DX2                !
 ! A3    A(11,1,13)            125.0537         estimate D2E/DX2                !
 ! A4    A(1,2,3)              109.6501         estimate D2E/DX2                !
 ! A5    A(1,2,5)              119.762          estimate D2E/DX2                !
 ! A6    A(3,2,5)              130.5879         estimate D2E/DX2                !
 ! A7    A(2,3,4)              109.644          estimate D2E/DX2                !
 ! A8    A(2,3,6)              130.5871         estimate D2E/DX2                !
 ! A9    A(4,3,6)              119.7688         estimate D2E/DX2                !
 ! A10   A(3,4,11)             105.1442         estimate D2E/DX2                !
 ! A11   A(3,4,12)             129.8855         estimate D2E/DX2                !
 ! A12   A(11,4,12)            124.9691         estimate D2E/DX2                !
 ! A13   A(8,7,9)              108.493          estimate D2E/DX2                !
 ! A14   A(8,7,10)             108.4135         estimate D2E/DX2                !
 ! A15   A(8,7,11)             110.2482         estimate D2E/DX2                !
 ! A16   A(9,7,10)             108.4075         estimate D2E/DX2                !
 ! A17   A(9,7,11)             110.4685         estimate D2E/DX2                !
 ! A18   A(10,7,11)            110.7403         estimate D2E/DX2                !
 ! A19   A(1,11,4)             110.4438         estimate D2E/DX2                !
 ! A20   A(1,11,7)             124.6557         estimate D2E/DX2                !
 ! A21   A(4,11,7)             124.8915         estimate D2E/DX2                !
 ! A22   A(4,12,16)            108.9354         estimate D2E/DX2                !
 ! A23   A(1,13,18)            108.9798         estimate D2E/DX2                !
 ! A24   A(15,14,16)           106.3379         estimate D2E/DX2                !
 ! A25   A(12,16,14)           139.9959         estimate D2E/DX2                !
 ! A26   A(18,17,19)           106.3363         estimate D2E/DX2                !
 ! A27   A(13,18,17)           140.0313         estimate D2E/DX2                !
 ! D1    D(11,1,2,3)             0.1331         estimate D2E/DX2                !
 ! D2    D(11,1,2,5)          -179.8037         estimate D2E/DX2                !
 ! D3    D(13,1,2,3)           179.7594         estimate D2E/DX2                !
 ! D4    D(13,1,2,5)            -0.1775         estimate D2E/DX2                !
 ! D5    D(2,1,11,4)            -0.2163         estimate D2E/DX2                !
 ! D6    D(2,1,11,7)          -179.1614         estimate D2E/DX2                !
 ! D7    D(13,1,11,4)         -179.8656         estimate D2E/DX2                !
 ! D8    D(13,1,11,7)            1.1892         estimate D2E/DX2                !
 ! D9    D(2,1,13,18)            1.5072         estimate D2E/DX2                !
 ! D10   D(11,1,13,18)        -178.9336         estimate D2E/DX2                !
 ! D11   D(1,2,3,4)             -0.0033         estimate D2E/DX2                !
 ! D12   D(1,2,3,6)           -179.9338         estimate D2E/DX2                !
 ! D13   D(5,2,3,4)            179.9245         estimate D2E/DX2                !
 ! D14   D(5,2,3,6)             -0.006          estimate D2E/DX2                !
 ! D15   D(2,3,4,11)            -0.1278         estimate D2E/DX2                !
 ! D16   D(2,3,4,12)          -179.7341         estimate D2E/DX2                !
 ! D17   D(6,3,4,11)           179.8114         estimate D2E/DX2                !
 ! D18   D(6,3,4,12)             0.2051         estimate D2E/DX2                !
 ! D19   D(3,4,11,1)             0.2145         estimate D2E/DX2                !
 ! D20   D(3,4,11,7)           179.1566         estimate D2E/DX2                !
 ! D21   D(12,4,11,1)          179.8459         estimate D2E/DX2                !
 ! D22   D(12,4,11,7)           -1.212          estimate D2E/DX2                !
 ! D23   D(3,4,12,16)           -1.5572         estimate D2E/DX2                !
 ! D24   D(11,4,12,16)         178.9066         estimate D2E/DX2                !
 ! D25   D(8,7,11,1)          -168.1987         estimate D2E/DX2                !
 ! D26   D(8,7,11,4)            13.0064         estimate D2E/DX2                !
 ! D27   D(9,7,11,1)           -48.2944         estimate D2E/DX2                !
 ! D28   D(9,7,11,4)           132.9107         estimate D2E/DX2                !
 ! D29   D(10,7,11,1)           71.8215         estimate D2E/DX2                !
 ! D30   D(10,7,11,4)         -106.9734         estimate D2E/DX2                !
 ! D31   D(4,12,16,14)          14.7715         estimate D2E/DX2                !
 ! D32   D(1,13,18,17)         -14.6859         estimate D2E/DX2                !
 ! D33   D(15,14,16,12)        121.0849         estimate D2E/DX2                !
 ! D34   D(19,17,18,13)       -121.2553         estimate D2E/DX2                !
 --------------------------------------------------------------------------------
 Trust Radius=3.00D-01 FncErr=1.00D-07 GrdErr=1.00D-07
 Number of steps in this run=     90 maximum allowed number of steps=    114.
 GradGradGradGradGradGradGradGradGradGradGradGradGradGradGradGradGradGrad

                          Input orientation:                          
 ---------------------------------------------------------------------
 Center     Atomic      Atomic             Coordinates (Angstroms)
 Number     Number       Type             X           Y           Z
 ---------------------------------------------------------------------
      1          6           0        1.177905   -0.368385    0.025356
      2          6           0        0.667953    1.059201    0.076320
      3          6           0       -0.668583    1.059299    0.076348
      4          6           0       -1.178453   -0.367862    0.025335
      5          1           0        1.375738    1.884729    0.104731
      6          1           0       -1.376271    1.884980    0.104877
      7          6           0        0.002117   -2.658390   -0.042979
      8          1           0       -1.009894   -3.037160   -0.275022
      9          1           0        0.699487   -3.024654   -0.817571
     10          1           0        0.314859   -3.073056    0.932285
     11          7           0       -0.000539   -1.185672   -0.007014
     12          8           0       -2.311122   -0.785026    0.006140
     13          8           0        2.310726   -0.784376    0.006592
     14          8           0       -3.613427    1.770115    0.006345
     15          1           0       -4.235777    1.964858   -0.689857
     16          1           0       -3.610739    0.806845    0.107821
     17          8           0        3.613050    1.771265    0.006075
     18          1           0        3.610142    0.807955    0.107219
     19          1           0        4.236771    1.966208   -0.688881
 ---------------------------------------------------------------------
                    Distance matrix (angstroms):
                    1          2          3          4          5
     1  C    0.000000
     2  C    1.516789   0.000000
     3  C    2.334609   1.336536   0.000000
     4  C    2.356358   2.334164   1.516363   0.000000
     5  H    2.263175   1.087779   2.204856   3.406518   0.000000
     6  H    3.407021   2.204899   1.087835   2.262909   2.752009
     7  C    2.575125   3.778631   3.779588   2.577776   4.748535
     8  H    3.463965   4.440584   4.125643   2.691427   5.482741
     9  H    2.827574   4.180659   4.398793   3.360907   5.040833
    10  H    2.980371   4.234725   4.333145   3.220344   5.137114
    11  N    1.434481   2.343775   2.343742   1.434343   3.366599
    12  O    3.513868   3.504424   2.470708   1.207201   4.553048
    13  O    1.206932   2.470292   3.504324   3.514001   2.829833
    14  O    5.246943   4.340566   3.030225   3.240433   4.991451
    15  H    5.938308   5.045177   3.759253   3.911561   5.668059
    16  H    4.931438   4.286243   2.953135   2.702361   5.101646
    17  O    3.241667   3.030770   4.340992   5.247355   2.242359
    18  H    2.703008   2.953059   4.286212   4.931520   2.480325
    19  H    3.913709   3.760938   5.046836   5.939919   2.970180
                    6          7          8          9         10
     6  H    0.000000
     7  C    4.750161   0.000000
     8  H    4.950355   1.105204   0.000000
     9  H    5.409638   1.104747   1.793460   0.000000
    10  H    5.303456   1.104941   1.792721   1.792283   0.000000
    11  N    3.366610   1.473159   2.125708   2.128120   2.131661
    12  O    2.830658   2.977076   2.616172   3.841640   3.603970
    13  O    4.552919   2.973897   4.022544   2.879962   3.174657
    14  O    2.242269   5.717189   5.474253   6.501529   6.304372
    15  H    2.968966   6.304968   5.966456   7.019143   6.979986
    16  H    2.480974   5.008325   4.656967   5.840786   5.580653
    17  O    4.991595   5.715163   6.676195   5.671691   5.933243
    18  H    5.101402   5.005592   6.022935   4.900616   5.157700
    19  H    5.669470   6.303681   7.261712   6.118631   6.588153
                   11         12         13         14         15
    11  N    0.000000
    12  O    2.345098   0.000000
    13  O    2.345884   4.621848   0.000000
    14  O    4.667956   2.867881   6.451435   0.000000
    15  H    5.322533   3.427911   7.134426   0.953909   0.000000
    16  H    4.125149   2.057522   6.132371   0.968604   1.538817
    17  O    4.669226   6.452165   2.868336   7.226477   7.881998
    18  H    4.126090   6.132632   2.057699   7.288064   7.970709
    19  H    5.324856   7.136333   3.429146   7.883362   8.472548
                   16         17         18         19
    16  H    0.000000
    17  O    7.288593   0.000000
    18  H    7.220881   0.968610   0.000000
    19  H    7.972595   0.953936   1.538827   0.000000
 Stoichiometry    C5H9NO4
 Framework group  C1[X(C5H9NO4)]
 Deg. of freedom    51
 Full point group                 C1      NOp   1
 Largest Abelian subgroup         C1      NOp   1
 Largest concise Abelian subgroup C1      NOp   1
                         Standard orientation:                         
 ---------------------------------------------------------------------
 Center     Atomic      Atomic             Coordinates (Angstroms)
 Number     Number       Type             X           Y           Z
 ---------------------------------------------------------------------
      1          6           0        1.177905    0.368385   -0.025356
      2          6           0        0.667953   -1.059201   -0.076320
      3          6           0       -0.668583   -1.059299   -0.076348
      4          6           0       -1.178453    0.367862   -0.025335
      5          1           0        1.375738   -1.884729   -0.104731
      6          1           0       -1.376271   -1.884980   -0.104877
      7          6           0        0.002117    2.658390    0.042979
      8          1           0       -1.009894    3.037160    0.275022
      9          1           0        0.699487    3.024654    0.817571
     10          1           0        0.314859    3.073056   -0.932285
     11          7           0       -0.000539    1.185672    0.007014
     12          8           0       -2.311122    0.785026   -0.006140
     13          8           0        2.310726    0.784376   -0.006592
     14          8           0       -3.613427   -1.770115   -0.006345
     15          1           0       -4.235777   -1.964858    0.689857
     16          1           0       -3.610739   -0.806845   -0.107821
     17          8           0        3.613050   -1.771265   -0.006075
     18          1           0        3.610142   -0.807955   -0.107219
     19          1           0        4.236771   -1.966208    0.688881
 ---------------------------------------------------------------------
 Rotational constants (GHZ):      1.6747415      0.7186951      0.5056969
 Standard basis: VSTO-6G (5D, 7F)
 There are    49 symmetry adapted cartesian basis functions of A   symmetry.
 There are    49 symmetry adapted basis functions of A   symmetry.
    49 basis functions,   294 primitive gaussians,    49 cartesian basis functions
    29 alpha electrons       29 beta electrons
       nuclear repulsion energy       332.3256705329 Hartrees.
 Integral buffers will be    131072 words long.
 Regular integral format.
 Two-electron integral symmetry is turned off.
 Nuclear repulsion after empirical dispersion term =      332.3215041731 Hartrees.
 ------------------------------------------------------------------------------
 Polarizable Continuum Model (PCM)
 =================================
 Model                : C-PCM.
 Atomic radii         : UFF (Universal Force Field).
 Polarization charges : Total charges.
 Charge compensation  : None.
 Solution method      : On-the-fly selection.
 Cavity type          : Scaled VdW (van der Waals Surface) (Alpha=1.100).
 Cavity algorithm     : GePol (No added spheres)
                        Default sphere list used, NSphG=   19.
                        Lebedev-Laikov grids with approx.  5.0 points / Ang**2.
                        Smoothing algorithm: Karplus/York (Gamma=1.0000).
                        Polarization charges: spherical gaussians, with
                                              point-specific exponents (IZeta= 3).
                        Self-potential: point-specific (ISelfS= 7).
                        Self-field    : sphere-specific E.n sum rule (ISelfD= 2).
 1st derivatives      : Analytical E(r).r(x)/FMM algorithm (CHGder, D1EAlg=3).
                        Cavity 1st derivative terms included.
 Solvent              : Water, Eps=  78.355300 Eps(inf)=   1.777849
 ------------------------------------------------------------------------------
 Spheres list:
 ISph  on   Nord     Re0    Alpha      Xe            Ye            Ze
    1   C      1    1.9255  1.100      1.177905      0.368385     -0.025356
    2   C      2    1.9255  1.100      0.667953     -1.059201     -0.076320
    3   C      3    1.9255  1.100     -0.668583     -1.059299     -0.076348
    4   C      4    1.9255  1.100     -1.178453      0.367862     -0.025335
    5   H      5    1.4430  1.100      1.375738     -1.884729     -0.104731
    6   H      6    1.4430  1.100     -1.376271     -1.884980     -0.104877
    7   C      7    1.9255  1.100      0.002117      2.658390      0.042979
    8   H      8    1.4430  1.100     -1.009894      3.037160      0.275022
    9   H      9    1.4430  1.100      0.699487      3.024654      0.817571
   10   H     10    1.4430  1.100      0.314859      3.073056     -0.932285
   11   N     11    1.8300  1.100     -0.000539      1.185672      0.007014
   12   O     12    1.7500  1.100     -2.311122      0.785026     -0.006140
   13   O     13    1.7500  1.100      2.310726      0.784376     -0.006592
   14   O     14    1.7500  1.100     -3.613427     -1.770115     -0.006345
   15   H     15    1.4430  1.100     -4.235777     -1.964858      0.689857
   16   H     16    1.4430  1.100     -3.610739     -0.806845     -0.107821
   17   O     17    1.7500  1.100      3.613050     -1.771265     -0.006075
   18   H     18    1.4430  1.100      3.610142     -0.807955     -0.107219
   19   H     19    1.4430  1.100      4.236771     -1.966208      0.688881
 ------------------------------------------------------------------------------
 Do NDO integrals.
 One-electron integrals computed using PRISM.
 NBasis=    49 RedAO= F EigKep=  0.00D+00  NBF=    49
 NBsUse=    49 1.00D-04 EigRej=  0.00D+00 NBFU=    49
 Simple Huckel Guess.
 Overlap will be assumed to be unity.
 Keep J ints in memory in canonical form, NReq=6351801.
 Requested convergence on RMS density matrix=1.00D-08 within 128 cycles.
 Requested convergence on MAX density matrix=1.00D-06.
 Requested convergence on             energy=1.00D-06.
 No special actions if energy rises.
 Inv3:  Mode=1 IEnd=     8999472.
 Iteration    1 A*A^-1 deviation from unit magnitude is 6.99D-15 for   1720.
 Iteration    1 A*A^-1 deviation from orthogonality  is 2.08D-15 for   1584    112.
 Iteration    1 A^-1*A deviation from unit magnitude is 6.99D-15 for   1720.
 Iteration    1 A^-1*A deviation from orthogonality  is 1.74D-15 for   1293   1237.
 Error on total polarization charges = -0.00040
 SCF Done:  E(RPM6D3) = -0.286913443401     A.U. after   15 cycles
            NFock= 14  Conv=0.35D-08     -V/T= 0.9914

 **********************************************************************

            Population analysis using the SCF density.

 **********************************************************************

 Orbital symmetries:
       Occupied  (A) (A) (A) (A) (A) (A) (A) (A) (A) (A) (A) (A)
                 (A) (A) (A) (A) (A) (A) (A) (A) (A) (A) (A) (A)
                 (A) (A) (A) (A) (A)
       Virtual   (A) (A) (A) (A) (A) (A) (A) (A) (A) (A) (A) (A)
                 (A) (A) (A) (A) (A) (A) (A) (A)
 The electronic state is 1-A.
 Alpha  occ. eigenvalues --   -1.24481  -1.20867  -1.17854  -1.10723  -1.10673
 Alpha  occ. eigenvalues --   -1.06549  -0.91701  -0.88892  -0.78824  -0.74965
 Alpha  occ. eigenvalues --   -0.69475  -0.68826  -0.64932  -0.63282  -0.61453
 Alpha  occ. eigenvalues --   -0.58798  -0.56796  -0.56383  -0.54583  -0.53925
 Alpha  occ. eigenvalues --   -0.52659  -0.52020  -0.51148  -0.44686  -0.44546
 Alpha  occ. eigenvalues --   -0.44422  -0.43833  -0.40977  -0.39301
 Alpha virt. eigenvalues --   -0.06014   0.01333   0.02479   0.02767   0.07549
 Alpha virt. eigenvalues --    0.07930   0.11435   0.11939   0.13834   0.15214
 Alpha virt. eigenvalues --    0.15526   0.16698   0.16728   0.18820   0.19005
 Alpha virt. eigenvalues --    0.19361   0.19477   0.21216   0.22372   0.22377
          Condensed to atoms (all electrons):
               1          2          3          4          5          6
     1  C    3.381916   0.000000   0.000000   0.000000   0.000000   0.000000
     2  C    0.000000   4.211795   0.000000   0.000000   0.000000   0.000000
     3  C    0.000000   0.000000   4.211686   0.000000   0.000000   0.000000
     4  C    0.000000   0.000000   0.000000   3.382314   0.000000   0.000000
     5  H    0.000000   0.000000   0.000000   0.000000   0.780310   0.000000
     6  H    0.000000   0.000000   0.000000   0.000000   0.000000   0.780246
     7  C    0.000000   0.000000   0.000000   0.000000   0.000000   0.000000
     8  H    0.000000   0.000000   0.000000   0.000000   0.000000   0.000000
     9  H    0.000000   0.000000   0.000000   0.000000   0.000000   0.000000
    10  H    0.000000   0.000000   0.000000   0.000000   0.000000   0.000000
    11  N    0.000000   0.000000   0.000000   0.000000   0.000000   0.000000
    12  O    0.000000   0.000000   0.000000   0.000000   0.000000   0.000000
    13  O    0.000000   0.000000   0.000000   0.000000   0.000000   0.000000
    14  O    0.000000   0.000000   0.000000   0.000000   0.000000   0.000000
    15  H    0.000000   0.000000   0.000000   0.000000   0.000000   0.000000
    16  H    0.000000   0.000000   0.000000   0.000000   0.000000   0.000000
    17  O    0.000000   0.000000   0.000000   0.000000   0.000000   0.000000
    18  H    0.000000   0.000000   0.000000   0.000000   0.000000   0.000000
    19  H    0.000000   0.000000   0.000000   0.000000   0.000000   0.000000
               7          8          9         10         11         12
     1  C    0.000000   0.000000   0.000000   0.000000   0.000000   0.000000
     2  C    0.000000   0.000000   0.000000   0.000000   0.000000   0.000000
     3  C    0.000000   0.000000   0.000000   0.000000   0.000000   0.000000
     4  C    0.000000   0.000000   0.000000   0.000000   0.000000   0.000000
     5  H    0.000000   0.000000   0.000000   0.000000   0.000000   0.000000
     6  H    0.000000   0.000000   0.000000   0.000000   0.000000   0.000000
     7  C    4.255306   0.000000   0.000000   0.000000   0.000000   0.000000
     8  H    0.000000   0.828017   0.000000   0.000000   0.000000   0.000000
     9  H    0.000000   0.000000   0.833438   0.000000   0.000000   0.000000
    10  H    0.000000   0.000000   0.000000   0.836704   0.000000   0.000000
    11  N    0.000000   0.000000   0.000000   0.000000   5.477270   0.000000
    12  O    0.000000   0.000000   0.000000   0.000000   0.000000   6.504565
    13  O    0.000000   0.000000   0.000000   0.000000   0.000000   0.000000
    14  O    0.000000   0.000000   0.000000   0.000000   0.000000   0.000000
    15  H    0.000000   0.000000   0.000000   0.000000   0.000000   0.000000
    16  H    0.000000   0.000000   0.000000   0.000000   0.000000   0.000000
    17  O    0.000000   0.000000   0.000000   0.000000   0.000000   0.000000
    18  H    0.000000   0.000000   0.000000   0.000000   0.000000   0.000000
    19  H    0.000000   0.000000   0.000000   0.000000   0.000000   0.000000
              13         14         15         16         17         18
     1  C    0.000000   0.000000   0.000000   0.000000   0.000000   0.000000
     2  C    0.000000   0.000000   0.000000   0.000000   0.000000   0.000000
     3  C    0.000000   0.000000   0.000000   0.000000   0.000000   0.000000
     4  C    0.000000   0.000000   0.000000   0.000000   0.000000   0.000000
     5  H    0.000000   0.000000   0.000000   0.000000   0.000000   0.000000
     6  H    0.000000   0.000000   0.000000   0.000000   0.000000   0.000000
     7  C    0.000000   0.000000   0.000000   0.000000   0.000000   0.000000
     8  H    0.000000   0.000000   0.000000   0.000000   0.000000   0.000000
     9  H    0.000000   0.000000   0.000000   0.000000   0.000000   0.000000
    10  H    0.000000   0.000000   0.000000   0.000000   0.000000   0.000000
    11  N    0.000000   0.000000   0.000000   0.000000   0.000000   0.000000
    12  O    0.000000   0.000000   0.000000   0.000000   0.000000   0.000000
    13  O    6.503828   0.000000   0.000000   0.000000   0.000000   0.000000
    14  O    0.000000   6.673046   0.000000   0.000000   0.000000   0.000000
    15  H    0.000000   0.000000   0.670928   0.000000   0.000000   0.000000
    16  H    0.000000   0.000000   0.000000   0.662325   0.000000   0.000000
    17  O    0.000000   0.000000   0.000000   0.000000   6.673043   0.000000
    18  H    0.000000   0.000000   0.000000   0.000000   0.000000   0.662336
    19  H    0.000000   0.000000   0.000000   0.000000   0.000000   0.000000
              19
     1  C    0.000000
     2  C    0.000000
     3  C    0.000000
     4  C    0.000000
     5  H    0.000000
     6  H    0.000000
     7  C    0.000000
     8  H    0.000000
     9  H    0.000000
    10  H    0.000000
    11  N    0.000000
    12  O    0.000000
    13  O    0.000000
    14  O    0.000000
    15  H    0.000000
    16  H    0.000000
    17  O    0.000000
    18  H    0.000000
    19  H    0.670927
 Mulliken charges:
               1
     1  C    0.618084
     2  C   -0.211795
     3  C   -0.211686
     4  C    0.617686
     5  H    0.219690
     6  H    0.219754
     7  C   -0.255306
     8  H    0.171983
     9  H    0.166562
    10  H    0.163296
    11  N   -0.477270
    12  O   -0.504565
    13  O   -0.503828
    14  O   -0.673046
    15  H    0.329072
    16  H    0.337675
    17  O   -0.673043
    18  H    0.337664
    19  H    0.329073
 Sum of Mulliken charges =   0.00000
 Mulliken charges with hydrogens summed into heavy atoms:
               1
     1  C    0.618084
     2  C    0.007895
     3  C    0.008068
     4  C    0.617686
     7  C    0.246535
    11  N   -0.477270
    12  O   -0.504565
    13  O   -0.503828
    14  O   -0.006299
    17  O   -0.006306
 Charge=              0.0000 electrons
 Dipole moment (field-independent basis, Debye):
    X=             -0.0196    Y=              1.4596    Z=              2.1817  Tot=              2.6250
 N-N= 3.323215041731D+02 E-N=-5.909093359734D+02  KE=-3.349382095566D+01
 D1PCM: C-PCM CHGder 1st derivatives, ID1Alg=3 FixD1E=F DoIter=F DoCFld=F I1PDM=0.
 Calling FoFJK, ICntrl=      2127 FMM=F ISym2X=0 I1Cent= 0 IOpClX= 0 NMat=1 NMatS=1 NMatT=0.
 ***** Axes restored to original set *****
 -------------------------------------------------------------------
 Center     Atomic                   Forces (Hartrees/Bohr)
 Number     Number              X              Y              Z
 -------------------------------------------------------------------
      1        6          -0.002737831    0.000220398   -0.000121904
      2        6           0.000384074    0.000186691    0.000088487
      3        6          -0.000353292    0.000253941    0.000100245
      4        6           0.002558522    0.000172281   -0.000125719
      5        1          -0.000456198   -0.000154956   -0.000092263
      6        1           0.000458550   -0.000169818   -0.000096272
      7        6           0.000012520    0.000149006    0.000054592
      8        1           0.000218316   -0.000291715   -0.000074072
      9        1          -0.000154625   -0.000245702   -0.000155794
     10        1          -0.000075610   -0.000210753    0.000109774
     11        7           0.000032213    0.000544753    0.000050506
     12        8          -0.001495048   -0.000438627    0.000172845
     13        8           0.001616307   -0.000493926    0.000164270
     14        8           0.000537690    0.000330290    0.001512661
     15        1          -0.000816695    0.000007008   -0.001144727
     16        1          -0.000068340   -0.000095604   -0.000405708
     17        8          -0.000532759    0.000327125    0.001504038
     18        1           0.000062000   -0.000096502   -0.000403751
     19        1           0.000810207    0.000006110   -0.001137207
 -------------------------------------------------------------------
 Cartesian Forces:  Max     0.002737831 RMS     0.000733004

 GradGradGradGradGradGradGradGradGradGradGradGradGradGradGradGradGradGrad
 Berny optimization.
 FormGI is forming the generalized inverse of G from B-inverse, IUseBI=4.
 Internal  Forces:  Max     0.001921041 RMS     0.000485441
 Search for a local minimum.
 Step number   1 out of a maximum of   90
 All quantities printed in internal units (Hartrees-Bohrs-Radians)
 Mixed Optimization -- En-DIIS/RFO-DIIS
 Second derivative matrix not updated -- first step.
 ITU=  0
     Eigenvalues ---    0.00230   0.00230   0.00724   0.00869   0.01102
     Eigenvalues ---    0.01147   0.01444   0.01444   0.01632   0.01804
     Eigenvalues ---    0.01839   0.02264   0.03920   0.03922   0.04242
     Eigenvalues ---    0.04246   0.07290   0.07338   0.16000   0.16000
     Eigenvalues ---    0.16000   0.16000   0.16000   0.16000   0.16000
     Eigenvalues ---    0.16000   0.16000   0.22683   0.24788   0.24993
     Eigenvalues ---    0.24999   0.24999   0.25000   0.25000   0.29622
     Eigenvalues ---    0.30503   0.33113   0.33142   0.33163   0.35064
     Eigenvalues ---    0.35071   0.35365   0.38161   0.39525   0.53662
     Eigenvalues ---    0.53663   0.55425   0.56798   0.56805   1.01287
     Eigenvalues ---    1.01416
 RFO step:  Lambda=-1.64259307D-04 EMin= 2.30000000D-03
 Linear search not attempted -- first point.
 Iteration  1 RMS(Cart)=  0.03428128 RMS(Int)=  0.00263181
 Iteration  2 RMS(Cart)=  0.00271045 RMS(Int)=  0.00000998
 Iteration  3 RMS(Cart)=  0.00001680 RMS(Int)=  0.00000116
 Iteration  4 RMS(Cart)=  0.00000000 RMS(Int)=  0.00000116
 Variable       Old X    -DE/DX   Delta X   Delta X   Delta X     New X
                                 (Linear)    (Quad)   (Total)
    R1        2.86632  -0.00005   0.00000  -0.00016  -0.00016   2.86616
    R2        2.71078  -0.00043   0.00000  -0.00110  -0.00110   2.70968
    R3        2.28077   0.00192   0.00000   0.00189   0.00189   2.28266
    R4        2.52569  -0.00033   0.00000  -0.00054  -0.00054   2.52515
    R5        2.05560  -0.00042   0.00000  -0.00119  -0.00119   2.05442
    R6        2.86551   0.00000   0.00000   0.00002   0.00002   2.86553
    R7        2.05571  -0.00043   0.00000  -0.00122  -0.00122   2.05449
    R8        2.71052  -0.00038   0.00000  -0.00095  -0.00095   2.70956
    R9        2.28128   0.00180   0.00000   0.00177   0.00177   2.28305
   R10        2.08853  -0.00008   0.00000  -0.00026  -0.00026   2.08828
   R11        2.08767   0.00009   0.00000   0.00028   0.00028   2.08795
   R12        2.08804   0.00015   0.00000   0.00046   0.00046   2.08850
   R13        2.78387   0.00060   0.00000   0.00170   0.00170   2.78557
   R14        3.88815   0.00040   0.00000   0.01025   0.01025   3.89841
   R15        3.88849   0.00040   0.00000   0.01008   0.01008   3.89857
   R16        1.80263   0.00137   0.00000   0.00241   0.00241   1.80504
   R17        1.83040   0.00030   0.00000   0.00055   0.00055   1.83095
   R18        1.83041   0.00030   0.00000   0.00055   0.00055   1.83096
   R19        1.80268   0.00136   0.00000   0.00239   0.00239   1.80507
    A1        1.83465   0.00027   0.00000   0.00105   0.00105   1.83569
    A2        2.26592  -0.00002   0.00000  -0.00006  -0.00006   2.26586
    A3        2.18260  -0.00025   0.00000  -0.00100  -0.00100   2.18160
    A4        1.91375  -0.00013   0.00000  -0.00049  -0.00049   1.91326
    A5        2.09024   0.00031   0.00000   0.00181   0.00181   2.09205
    A6        2.27919  -0.00019   0.00000  -0.00132  -0.00132   2.27786
    A7        1.91365  -0.00013   0.00000  -0.00049  -0.00049   1.91316
    A8        2.27917  -0.00018   0.00000  -0.00126  -0.00127   2.27791
    A9        2.09036   0.00031   0.00000   0.00175   0.00175   2.09211
   A10        1.83511   0.00023   0.00000   0.00094   0.00094   1.83605
   A11        2.26693   0.00000   0.00000  -0.00002  -0.00002   2.26691
   A12        2.18112  -0.00023   0.00000  -0.00093  -0.00093   2.18019
   A13        1.89356  -0.00041   0.00000  -0.00321  -0.00321   1.89035
   A14        1.89217  -0.00026   0.00000  -0.00158  -0.00158   1.89059
   A15        1.92419   0.00037   0.00000   0.00201   0.00201   1.92620
   A16        1.89207  -0.00010   0.00000  -0.00004  -0.00004   1.89202
   A17        1.92804   0.00022   0.00000   0.00133   0.00133   1.92937
   A18        1.93278   0.00016   0.00000   0.00131   0.00130   1.93409
   A19        1.92761  -0.00024   0.00000  -0.00101  -0.00101   1.92660
   A20        2.17565   0.00007   0.00000   0.00030   0.00030   2.17596
   A21        2.17977   0.00017   0.00000   0.00072   0.00072   2.18049
   A22        1.90128   0.00128   0.00000   0.00798   0.00798   1.90926
   A23        1.90206   0.00125   0.00000   0.00778   0.00778   1.90984
   A24        1.85595  -0.00048   0.00000  -0.00301  -0.00301   1.85294
   A25        2.44339   0.00082   0.00000   0.00329   0.00329   2.44668
   A26        1.85592  -0.00048   0.00000  -0.00298  -0.00298   1.85294
   A27        2.44401   0.00082   0.00000   0.00326   0.00326   2.44727
    D1        0.00232   0.00001   0.00000   0.00090   0.00090   0.00323
    D2       -3.13817   0.00006   0.00000   0.00401   0.00402  -3.13415
    D3        3.13739  -0.00002   0.00000  -0.00066  -0.00066   3.13674
    D4       -0.00310   0.00003   0.00000   0.00246   0.00246  -0.00064
    D5       -0.00378  -0.00002   0.00000  -0.00150  -0.00150  -0.00527
    D6       -3.12696  -0.00003   0.00000  -0.00255  -0.00255  -3.12950
    D7       -3.13925   0.00001   0.00000  -0.00004  -0.00004  -3.13929
    D8        0.02076  -0.00001   0.00000  -0.00109  -0.00109   0.01967
    D9        0.02631   0.00005   0.00000   0.00161   0.00161   0.02792
   D10       -3.12298   0.00001   0.00000  -0.00022  -0.00022  -3.12320
   D11       -0.00006   0.00000   0.00000   0.00001   0.00001  -0.00005
   D12       -3.14044   0.00006   0.00000   0.00360   0.00360  -3.13684
   D13        3.14027  -0.00006   0.00000  -0.00354  -0.00354   3.13674
   D14       -0.00010   0.00000   0.00000   0.00005   0.00005  -0.00006
   D15       -0.00223  -0.00001   0.00000  -0.00092  -0.00092  -0.00315
   D16       -3.13695   0.00002   0.00000   0.00056   0.00056  -3.13639
   D17        3.13830  -0.00006   0.00000  -0.00406  -0.00406   3.13424
   D18        0.00358  -0.00003   0.00000  -0.00258  -0.00258   0.00100
   D19        0.00374   0.00002   0.00000   0.00150   0.00150   0.00525
   D20        3.12687   0.00003   0.00000   0.00255   0.00255   3.12942
   D21        3.13890  -0.00001   0.00000   0.00012   0.00012   3.13902
   D22       -0.02115   0.00001   0.00000   0.00117   0.00117  -0.01998
   D23       -0.02718  -0.00004   0.00000  -0.00141  -0.00141  -0.02858
   D24        3.12251  -0.00001   0.00000   0.00033   0.00033   3.12284
   D25       -2.93562   0.00006   0.00000   0.00145   0.00145  -2.93418
   D26        0.22700   0.00004   0.00000   0.00026   0.00026   0.22727
   D27       -0.84290  -0.00008   0.00000  -0.00040  -0.00040  -0.84330
   D28        2.31973  -0.00009   0.00000  -0.00158  -0.00158   2.31815
   D29        1.25352   0.00005   0.00000   0.00127   0.00127   1.25479
   D30       -1.86704   0.00003   0.00000   0.00009   0.00009  -1.86695
   D31        0.25781  -0.00033   0.00000  -0.13446  -0.13446   0.12335
   D32       -0.25632   0.00034   0.00000   0.13709   0.13709  -0.11923
   D33        2.11333  -0.00030   0.00000  -0.02049  -0.02049   2.09284
   D34       -2.11630   0.00030   0.00000   0.02074   0.02074  -2.09556
         Item               Value     Threshold  Converged?
 Maximum Force            0.001921     0.000450     NO 
 RMS     Force            0.000485     0.000300     NO 
 Maximum Displacement     0.140197     0.001800     NO 
 RMS     Displacement     0.034963     0.001200     NO 
 Predicted change in Energy=-8.527324D-05
 GradGradGradGradGradGradGradGradGradGradGradGradGradGradGradGradGradGrad

                          Input orientation:                          
 ---------------------------------------------------------------------
 Center     Atomic      Atomic             Coordinates (Angstroms)
 Number     Number       Type             X           Y           Z
 ---------------------------------------------------------------------
      1          6           0        1.177096   -0.372248    0.017600
      2          6           0        0.668066    1.055969    0.056141
      3          6           0       -0.668183    1.056246    0.056298
      4          6           0       -1.177544   -0.371498    0.017815
      5          1           0        1.374460    1.882148    0.074347
      6          1           0       -1.374291    1.882713    0.074717
      7          6           0        0.002324   -2.663733   -0.035407
      8          1           0       -1.008589   -3.046122   -0.265653
      9          1           0        0.698658   -3.036236   -0.808167
     10          1           0        0.314462   -3.073599    0.942354
     11          7           0       -0.000524   -1.189918   -0.008766
     12          8           0       -2.310948   -0.789516    0.001831
     13          8           0        2.310618   -0.789358    0.001727
     14          8           0       -3.628457    1.764936    0.065225
     15          1           0       -4.163338    2.010133   -0.687210
     16          1           0       -3.627260    0.796388    0.091191
     17          8           0        3.628081    1.765486    0.066136
     18          1           0        3.626732    0.796881    0.090036
     19          1           0        4.162582    2.012202   -0.686094
 ---------------------------------------------------------------------
                    Distance matrix (angstroms):
                    1          2          3          4          5
     1  C    0.000000
     2  C    1.516707   0.000000
     3  C    2.333912   1.336249   0.000000
     4  C    2.354640   2.333540   1.516372   0.000000
     5  H    2.263731   1.087150   2.203368   3.405120   0.000000
     6  H    3.405538   2.203423   1.087187   2.263496   2.748750
     7  C    2.575617   3.779917   3.781035   2.578616   4.749720
     8  H    3.465119   4.443183   4.129038   2.694905   5.484740
     9  H    2.829774   4.182595   4.400450   3.362024   5.042424
    10  H    2.982717   4.238365   4.336623   3.222143   5.141640
    11  N    1.433900   2.344192   2.344196   1.433839   3.366762
    12  O    3.512949   3.504753   2.471534   1.208139   4.552503
    13  O    1.207934   2.471067   3.504638   3.513138   2.831715
    14  O    5.259578   4.354633   3.043935   3.251703   5.004298
    15  H    5.890053   4.980508   3.698488   3.883837   5.591382
    16  H    4.944994   4.303305   2.970670   2.714857   5.118238
    17  O    3.252629   3.043880   4.354424   5.259570   2.256654
    18  H    2.715295   2.970182   4.302871   4.944835   2.500156
    19  H    3.885088   3.698234   4.980089   5.890200   2.892889
                    6          7          8          9         10
     6  H    0.000000
     7  C    4.751565   0.000000
     8  H    4.954090   1.105069   0.000000
     9  H    5.410421   1.104897   1.791399   0.000000
    10  H    5.307514   1.105187   1.791787   1.792576   0.000000
    11  N    3.366789   1.474058   2.127834   2.129973   2.133565
    12  O    2.832570   2.977466   2.619153   3.842080   3.604774
    13  O    4.552345   2.973698   4.022637   2.881458   3.176031
    14  O    2.257261   5.727635   5.488121   6.522115   6.302966
    15  H    2.894055   6.294649   5.974603   7.008529   6.967819
    16  H    2.501249   5.016208   4.663653   5.849053   5.589137
    17  O    5.003753   5.724894   6.690319   5.692316   5.929972
    18  H    5.117567   5.012776   6.031698   4.906442   5.165094
    19  H    5.590399   6.292496   7.245993   6.123756   6.582191
                   11         12         13         14         15
    11  N    0.000000
    12  O    2.344887   0.000000
    13  O    2.345621   4.621566   0.000000
    14  O    4.679587   2.874904   6.465374   0.000000
    15  H    5.294302   3.426976   7.086881   0.955184   0.000000
    16  H    4.136256   2.062948   6.146624   0.968896   1.538332
    17  O    4.680471   6.465620   2.875255   7.256538   7.831577
    18  H    4.136922   6.146583   2.063034   7.319529   7.922201
    19  H    5.295640   7.087274   3.428062   7.831086   8.325920
                   16         17         18         19
    16  H    0.000000
    17  O    7.319819   0.000000
    18  H    7.253992   0.968901   0.000000
    19  H    7.922374   0.955202   1.538349   0.000000
 Stoichiometry    C5H9NO4
 Framework group  C1[X(C5H9NO4)]
 Deg. of freedom    51
 Full point group                 C1      NOp   1
 Largest Abelian subgroup         C1      NOp   1
 Largest concise Abelian subgroup C1      NOp   1
                         Standard orientation:                         
 ---------------------------------------------------------------------
 Center     Atomic      Atomic             Coordinates (Angstroms)
 Number     Number       Type             X           Y           Z
 ---------------------------------------------------------------------
      1          6           0        1.177090    0.368610   -0.013368
      2          6           0        0.667856   -1.059760   -0.042338
      3          6           0       -0.668393   -1.059846   -0.042570
      4          6           0       -1.177550    0.368198   -0.013713
      5          1           0        1.374132   -1.886145   -0.054950
      6          1           0       -1.374618   -1.886316   -0.055474
      7          6           0        0.002646    2.660569    0.024168
      8          1           0       -1.008224    3.044643    0.251781
      9          1           0        0.698990    3.038157    0.794447
     10          1           0        0.314898    3.063809   -0.956308
     11          7           0       -0.000414    1.186609    0.007434
     12          8           0       -2.310895    0.786477   -0.000604
     13          8           0        2.310671    0.785655   -0.000234
     14          8           0       -3.628768   -1.768153   -0.046902
     15          1           0       -4.163727   -2.008211    0.707132
     16          1           0       -3.627430   -0.799802   -0.079378
     17          8           0        3.627770   -1.769755   -0.047394
     18          1           0        3.626561   -0.801332   -0.077804
     19          1           0        4.162192   -2.011485    0.706508
 ---------------------------------------------------------------------
 Rotational constants (GHZ):      1.6722379      0.7163014      0.5042377
 Standard basis: VSTO-6G (5D, 7F)
 There are    49 symmetry adapted cartesian basis functions of A   symmetry.
 There are    49 symmetry adapted basis functions of A   symmetry.
    49 basis functions,   294 primitive gaussians,    49 cartesian basis functions
    29 alpha electrons       29 beta electrons
       nuclear repulsion energy       332.1653669125 Hartrees.
 Integral buffers will be    131072 words long.
 Regular integral format.
 Two-electron integral symmetry is turned off.
 Nuclear repulsion after empirical dispersion term =      332.1611562166 Hartrees.
 ------------------------------------------------------------------------------
 Polarizable Continuum Model (PCM)
 =================================
 Model                : C-PCM.
 Atomic radii         : UFF (Universal Force Field).
 Polarization charges : Total charges.
 Charge compensation  : None.
 Solution method      : On-the-fly selection.
 Cavity type          : Scaled VdW (van der Waals Surface) (Alpha=1.100).
 Cavity algorithm     : GePol (No added spheres)
                        Default sphere list used, NSphG=   19.
                        Lebedev-Laikov grids with approx.  5.0 points / Ang**2.
                        Smoothing algorithm: Karplus/York (Gamma=1.0000).
                        Polarization charges: spherical gaussians, with
                                              point-specific exponents (IZeta= 3).
                        Self-potential: point-specific (ISelfS= 7).
                        Self-field    : sphere-specific E.n sum rule (ISelfD= 2).
 1st derivatives      : Analytical E(r).r(x)/FMM algorithm (CHGder, D1EAlg=3).
                        Cavity 1st derivative terms included.
 Solvent              : Water, Eps=  78.355300 Eps(inf)=   1.777849
 ------------------------------------------------------------------------------
 Spheres list:
 ISph  on   Nord     Re0    Alpha      Xe            Ye            Ze
    1   C      1    1.9255  1.100      1.177090      0.368610     -0.013368
    2   C      2    1.9255  1.100      0.667856     -1.059760     -0.042338
    3   C      3    1.9255  1.100     -0.668393     -1.059846     -0.042570
    4   C      4    1.9255  1.100     -1.177550      0.368198     -0.013713
    5   H      5    1.4430  1.100      1.374132     -1.886145     -0.054950
    6   H      6    1.4430  1.100     -1.374618     -1.886316     -0.055474
    7   C      7    1.9255  1.100      0.002646      2.660569      0.024168
    8   H      8    1.4430  1.100     -1.008224      3.044643      0.251781
    9   H      9    1.4430  1.100      0.698990      3.038157      0.794447
   10   H     10    1.4430  1.100      0.314898      3.063809     -0.956308
   11   N     11    1.8300  1.100     -0.000414      1.186609      0.007434
   12   O     12    1.7500  1.100     -2.310895      0.786477     -0.000604
   13   O     13    1.7500  1.100      2.310671      0.785655     -0.000234
   14   O     14    1.7500  1.100     -3.628768     -1.768153     -0.046902
   15   H     15    1.4430  1.100     -4.163727     -2.008211      0.707132
   16   H     16    1.4430  1.100     -3.627430     -0.799802     -0.079378
   17   O     17    1.7500  1.100      3.627770     -1.769755     -0.047394
   18   H     18    1.4430  1.100      3.626561     -0.801332     -0.077804
   19   H     19    1.4430  1.100      4.162192     -2.011485      0.706508
 ------------------------------------------------------------------------------
 Do NDO integrals.
 One-electron integrals computed using PRISM.
 NBasis=    49 RedAO= F EigKep=  0.00D+00  NBF=    49
 NBsUse=    49 1.00D-04 EigRej=  0.00D+00 NBFU=    49
 Initial guess from the checkpoint file:  "PM6_2H2O_dienophile_pm6_cpcmtoluene_1_water.chk"
 B after Tr=     0.000000    0.000000    0.000000
         Rot=    1.000000   -0.000237    0.000004    0.000050 Ang=  -0.03 deg.
 Overlap will be assumed to be unity.
 Keep J ints in memory in canonical form, NReq=6413703.
 Requested convergence on RMS density matrix=1.00D-08 within 128 cycles.
 Requested convergence on MAX density matrix=1.00D-06.
 Requested convergence on             energy=1.00D-06.
 No special actions if energy rises.
 Inv3:  Mode=1 IEnd=     9177003.
 Iteration    1 A*A^-1 deviation from unit magnitude is 4.22D-15 for   1738.
 Iteration    1 A*A^-1 deviation from orthogonality  is 3.14D-15 for   1738    834.
 Iteration    1 A^-1*A deviation from unit magnitude is 4.55D-15 for   1739.
 Iteration    1 A^-1*A deviation from orthogonality  is 2.50D-15 for   1742   1286.
 Error on total polarization charges = -0.00035
 SCF Done:  E(RPM6D3) = -0.286998893151     A.U. after   11 cycles
            NFock= 10  Conv=0.87D-08     -V/T= 0.9914
 D1PCM: C-PCM CHGder 1st derivatives, ID1Alg=3 FixD1E=F DoIter=F DoCFld=F I1PDM=0.
 Calling FoFJK, ICntrl=      2127 FMM=F ISym2X=0 I1Cent= 0 IOpClX= 0 NMat=1 NMatS=1 NMatT=0.
 ***** Axes restored to original set *****
 -------------------------------------------------------------------
 Center     Atomic                   Forces (Hartrees/Bohr)
 Number     Number              X              Y              Z
 -------------------------------------------------------------------
      1        6          -0.000698860   -0.000262787   -0.000260946
      2        6           0.000617221   -0.000053827   -0.000088440
      3        6          -0.000610184   -0.000026284   -0.000081559
      4        6           0.000622364   -0.000290443   -0.000257404
      5        1          -0.000017341   -0.000058221    0.000152990
      6        1           0.000020806   -0.000072257    0.000148445
      7        6           0.000049467    0.000360575    0.000077198
      8        1           0.000057213   -0.000004839   -0.000035380
      9        1          -0.000064750    0.000020770   -0.000057003
     10        1          -0.000047397    0.000058365    0.000006472
     11        7           0.000006910   -0.000362589    0.000113249
     12        8          -0.000216932    0.000153965    0.000188480
     13        8           0.000285168    0.000122107    0.000182776
     14        8           0.000348070    0.000189602    0.000979681
     15        1          -0.000621840    0.000064310   -0.000855860
     16        1           0.000141694   -0.000043794   -0.000168537
     17        8          -0.000344854    0.000189143    0.000971656
     18        1          -0.000146342   -0.000047362   -0.000164676
     19        1           0.000619585    0.000063565   -0.000851139
 -------------------------------------------------------------------
 Cartesian Forces:  Max     0.000979681 RMS     0.000352410

 GradGradGradGradGradGradGradGradGradGradGradGradGradGradGradGradGradGrad
 Berny optimization.
 Using GEDIIS/GDIIS optimizer.
 FormGI is forming the generalized inverse of G from B-inverse, IUseBI=4.
 Internal  Forces:  Max     0.001039479 RMS     0.000260278
 Search for a local minimum.
 Step number   2 out of a maximum of   90
 All quantities printed in internal units (Hartrees-Bohrs-Radians)
 Mixed Optimization -- En-DIIS/RFO-DIIS
 Swapping is turned off.
 Update second derivatives using D2CorX and points    1    2
 DE= -8.54D-05 DEPred=-8.53D-05 R= 1.00D+00
 TightC=F SS=  1.41D+00  RLast= 1.96D-01 DXNew= 5.0454D-01 5.8683D-01
 Trust test= 1.00D+00 RLast= 1.96D-01 DXMaxT set to 5.05D-01
 ITU=  1  0
     Eigenvalues ---    0.00230   0.00305   0.00724   0.00871   0.01103
     Eigenvalues ---    0.01146   0.01411   0.01444   0.01634   0.01837
     Eigenvalues ---    0.01916   0.02262   0.03687   0.03921   0.04244
     Eigenvalues ---    0.04301   0.07258   0.07311   0.13653   0.16000
     Eigenvalues ---    0.16000   0.16000   0.16000   0.16000   0.16000
     Eigenvalues ---    0.16000   0.16179   0.22684   0.24075   0.24842
     Eigenvalues ---    0.24994   0.24999   0.25000   0.25261   0.29620
     Eigenvalues ---    0.30526   0.33109   0.33146   0.33164   0.34994
     Eigenvalues ---    0.35068   0.35801   0.38056   0.39523   0.53386
     Eigenvalues ---    0.53663   0.54808   0.55751   0.56801   1.00352
     Eigenvalues ---    1.01348
 En-DIIS/RFO-DIIS IScMMF=        0 using points:     2    1
 RFO step:  Lambda=-1.18892861D-05.
 DidBck=F Rises=F RFO-DIIS coefs:    0.97470    0.02530
 Iteration  1 RMS(Cart)=  0.01258249 RMS(Int)=  0.00005275
 Iteration  2 RMS(Cart)=  0.00009711 RMS(Int)=  0.00000198
 Iteration  3 RMS(Cart)=  0.00000001 RMS(Int)=  0.00000198
 Variable       Old X    -DE/DX   Delta X   Delta X   Delta X     New X
                                 (Linear)    (Quad)   (Total)
    R1        2.86616  -0.00018   0.00000  -0.00057  -0.00057   2.86560
    R2        2.70968  -0.00008   0.00003  -0.00050  -0.00048   2.70920
    R3        2.28266   0.00027  -0.00005   0.00072   0.00068   2.28334
    R4        2.52515   0.00038   0.00001   0.00054   0.00056   2.52570
    R5        2.05442  -0.00005   0.00003  -0.00044  -0.00041   2.05401
    R6        2.86553  -0.00017   0.00000  -0.00049  -0.00049   2.86503
    R7        2.05449  -0.00007   0.00003  -0.00048  -0.00045   2.05403
    R8        2.70956  -0.00007   0.00002  -0.00044  -0.00042   2.70914
    R9        2.28305   0.00020  -0.00004   0.00063   0.00058   2.28363
   R10        2.08828  -0.00004   0.00001  -0.00019  -0.00019   2.08809
   R11        2.08795  -0.00001  -0.00001   0.00005   0.00004   2.08799
   R12        2.08850  -0.00003  -0.00001   0.00003   0.00002   2.08852
   R13        2.78557  -0.00043  -0.00004  -0.00078  -0.00083   2.78474
   R14        3.89841   0.00024  -0.00026   0.00853   0.00827   3.90668
   R15        3.89857   0.00024  -0.00026   0.00840   0.00815   3.90672
   R16        1.80504   0.00104  -0.00006   0.00237   0.00231   1.80735
   R17        1.83095   0.00025  -0.00001   0.00059   0.00057   1.83152
   R18        1.83096   0.00025  -0.00001   0.00059   0.00058   1.83153
   R19        1.80507   0.00103  -0.00006   0.00236   0.00230   1.80737
    A1        1.83569   0.00011  -0.00003   0.00066   0.00063   1.83632
    A2        2.26586  -0.00028   0.00000  -0.00107  -0.00107   2.26479
    A3        2.18160   0.00017   0.00003   0.00044   0.00046   2.18206
    A4        1.91326  -0.00008   0.00001  -0.00034  -0.00033   1.91293
    A5        2.09205   0.00002  -0.00005   0.00043   0.00038   2.09242
    A6        2.27786   0.00006   0.00003  -0.00006  -0.00004   2.27783
    A7        1.91316  -0.00008   0.00001  -0.00034  -0.00033   1.91283
    A8        2.27791   0.00007   0.00003   0.00000   0.00002   2.27793
    A9        2.09211   0.00001  -0.00004   0.00037   0.00032   2.09243
   A10        1.83605   0.00011  -0.00002   0.00061   0.00059   1.83664
   A11        2.26691  -0.00028   0.00000  -0.00104  -0.00105   2.26587
   A12        2.18019   0.00017   0.00002   0.00047   0.00049   2.18068
   A13        1.89035  -0.00005   0.00008  -0.00131  -0.00123   1.88912
   A14        1.89059   0.00002   0.00004  -0.00029  -0.00025   1.89034
   A15        1.92620   0.00003  -0.00005   0.00055   0.00050   1.92671
   A16        1.89202   0.00008   0.00000   0.00072   0.00072   1.89274
   A17        1.92937  -0.00002  -0.00003   0.00021   0.00017   1.92954
   A18        1.93409  -0.00006  -0.00003   0.00008   0.00005   1.93414
   A19        1.92660  -0.00005   0.00003  -0.00057  -0.00055   1.92605
   A20        2.17596   0.00001  -0.00001   0.00019   0.00018   2.17614
   A21        2.18049   0.00004  -0.00002   0.00039   0.00038   2.18086
   A22        1.90926   0.00061  -0.00020   0.00567   0.00547   1.91473
   A23        1.90984   0.00059  -0.00020   0.00552   0.00532   1.91516
   A24        1.85294  -0.00038   0.00008  -0.00305  -0.00298   1.84996
   A25        2.44668   0.00072  -0.00008   0.00359   0.00351   2.45019
   A26        1.85294  -0.00038   0.00008  -0.00304  -0.00296   1.84998
   A27        2.44727   0.00071  -0.00008   0.00358   0.00350   2.45076
    D1        0.00323  -0.00002  -0.00002  -0.00154  -0.00156   0.00166
    D2       -3.13415  -0.00012  -0.00010  -0.00635  -0.00646  -3.14061
    D3        3.13674   0.00008   0.00002   0.00330   0.00331   3.14005
    D4       -0.00064  -0.00002  -0.00006  -0.00152  -0.00158  -0.00222
    D5       -0.00527   0.00004   0.00004   0.00251   0.00254  -0.00273
    D6       -3.12950   0.00004   0.00006   0.00174   0.00181  -3.12770
    D7       -3.13929  -0.00005   0.00000  -0.00202  -0.00202  -3.14131
    D8        0.01967  -0.00005   0.00003  -0.00278  -0.00276   0.01691
    D9        0.02792  -0.00019  -0.00004  -0.00562  -0.00566   0.02226
   D10       -3.12320  -0.00007   0.00001   0.00008   0.00008  -3.12312
   D11       -0.00005   0.00000   0.00000   0.00003   0.00003  -0.00002
   D12       -3.13684  -0.00011  -0.00009  -0.00542  -0.00551   3.14083
   D13        3.13674   0.00011   0.00009   0.00553   0.00561  -3.14084
   D14       -0.00006   0.00000   0.00000   0.00007   0.00007   0.00002
   D15       -0.00315   0.00002   0.00002   0.00149   0.00151  -0.00163
   D16       -3.13639  -0.00008  -0.00001  -0.00338  -0.00339  -3.13978
   D17        3.13424   0.00012   0.00010   0.00627   0.00637   3.14061
   D18        0.00100   0.00002   0.00007   0.00140   0.00147   0.00246
   D19        0.00525  -0.00004  -0.00004  -0.00249  -0.00253   0.00272
   D20        3.12942  -0.00004  -0.00006  -0.00173  -0.00179   3.12763
   D21        3.13902   0.00005   0.00000   0.00205   0.00206   3.14108
   D22       -0.01998   0.00005  -0.00003   0.00282   0.00279  -0.01719
   D23       -0.02858   0.00019   0.00004   0.00570   0.00574  -0.02285
   D24        3.12284   0.00007  -0.00001  -0.00002  -0.00003   3.12281
   D25       -2.93418   0.00002  -0.00004   0.00119   0.00115  -2.93302
   D26        0.22727   0.00002  -0.00001   0.00032   0.00032   0.22759
   D27       -0.84330  -0.00003   0.00001   0.00005   0.00005  -0.84324
   D28        2.31815  -0.00003   0.00004  -0.00082  -0.00078   2.31737
   D29        1.25479   0.00002  -0.00003   0.00114   0.00110   1.25590
   D30       -1.86695   0.00002   0.00000   0.00027   0.00027  -1.86668
   D31        0.12335   0.00010   0.00340   0.00998   0.01339   0.13673
   D32       -0.11923  -0.00010  -0.00347  -0.01039  -0.01386  -0.13308
   D33        2.09284   0.00001   0.00052  -0.00411  -0.00360   2.08925
   D34       -2.09556  -0.00001  -0.00052   0.00406   0.00353  -2.09203
         Item               Value     Threshold  Converged?
 Maximum Force            0.001039     0.000450     NO 
 RMS     Force            0.000260     0.000300     YES
 Maximum Displacement     0.053569     0.001800     NO 
 RMS     Displacement     0.012643     0.001200     NO 
 Predicted change in Energy=-1.713847D-05
 GradGradGradGradGradGradGradGradGradGradGradGradGradGradGradGradGradGrad

                          Input orientation:                          
 ---------------------------------------------------------------------
 Center     Atomic      Atomic             Coordinates (Angstroms)
 Number     Number       Type             X           Y           Z
 ---------------------------------------------------------------------
      1          6           0        1.176685   -0.370095    0.017700
      2          6           0        0.668275    1.057905    0.060464
      3          6           0       -0.668269    1.058224    0.060610
      4          6           0       -1.177119   -0.369305    0.017937
      5          1           0        1.374526    1.883737    0.085734
      6          1           0       -1.374213    1.884332    0.086019
      7          6           0        0.002460   -2.661272   -0.036987
      8          1           0       -1.007976   -3.044002   -0.268282
      9          1           0        0.698512   -3.033157   -0.810328
     10          1           0        0.313962   -3.072106    0.940581
     11          7           0       -0.000514   -1.187921   -0.008946
     12          8           0       -2.311136   -0.786618    0.003878
     13          8           0        2.310847   -0.786567    0.003693
     14          8           0       -3.647728    1.765018    0.057554
     15          1           0       -4.191679    1.995848   -0.694476
     16          1           0       -3.637662    0.796506    0.092642
     17          8           0        3.647075    1.765560    0.058250
     18          1           0        3.636968    0.796977    0.091500
     19          1           0        4.190929    1.997808   -0.693426
 ---------------------------------------------------------------------
                    Distance matrix (angstroms):
                    1          2          3          4          5
     1  C    0.000000
     2  C    1.516408   0.000000
     3  C    2.333622   1.336544   0.000000
     4  C    2.353804   2.333284   1.516110   0.000000
     5  H    2.263521   1.086935   2.203433   3.404657   0.000000
     6  H    3.405024   2.203495   1.086948   2.263264   2.748739
     7  C    2.575129   3.779562   3.780748   2.578282   4.749182
     8  H    3.464724   4.443370   4.129387   2.695281   5.484912
     9  H    2.829519   4.182820   4.400685   3.361565   5.043389
    10  H    2.982762   4.237587   4.335754   3.221759   5.139645
    11  N    1.433648   2.344319   2.344335   1.433616   3.366717
    12  O    3.512631   3.504619   2.470966   1.208446   4.552099
    13  O    1.208291   2.470495   3.504515   3.512864   2.830892
    14  O    5.275913   4.373545   3.062147   3.265090   5.023736
    15  H    5.909671   5.006878   3.723400   3.897314   5.621738
    16  H    4.954242   4.313984   2.981076   2.723778   5.128757
    17  O    3.265806   3.061703   4.372931   5.275615   2.275785
    18  H    2.724058   2.980299   4.313267   4.953893   2.509925
    19  H    3.898503   3.723018   5.006316   5.909754   2.924420
                    6          7          8          9         10
     6  H    0.000000
     7  C    4.751092   0.000000
     8  H    4.954608   1.104971   0.000000
     9  H    5.411222   1.104918   1.790540   0.000000
    10  H    5.305327   1.105196   1.791553   1.793064   0.000000
    11  N    3.366721   1.473620   2.127739   2.129729   2.133226
    12  O    2.831704   2.978040   2.620702   3.842896   3.604443
    13  O    4.551939   2.974024   4.023005   2.882606   3.176319
    14  O    2.276822   5.738018   5.495556   6.531884   6.314467
    15  H    2.925701   6.301735   5.976428   7.015574   6.975555
    16  H    2.511297   5.022302   4.668513   5.855261   5.594684
    17  O    5.022769   5.734904   6.701344   5.698783   5.940637
    18  H    5.127797   5.018530   6.038052   4.910982   5.170408
    19  H    5.620606   6.299302   7.254599   6.125459   6.588238
                   11         12         13         14         15
    11  N    0.000000
    12  O    2.345247   0.000000
    13  O    2.345982   4.621982   0.000000
    14  O    4.693234   2.881008   6.482137   0.000000
    15  H    5.307749   3.430198   7.107188   0.956407   0.000000
    16  H    4.144528   2.067325   6.156199   0.969200   1.537827
    17  O    4.693875   6.482040   2.881290   7.294803   7.878178
    18  H    4.145019   6.155923   2.067346   7.348813   7.958816
    19  H    5.309009   7.107468   3.431243   7.877989   8.382608
                   16         17         18         19
    16  H    0.000000
    17  O    7.348989   0.000000
    18  H    7.274630   0.969206   0.000000
    19  H    7.959137   0.956417   1.537848   0.000000
 Stoichiometry    C5H9NO4
 Framework group  C1[X(C5H9NO4)]
 Deg. of freedom    51
 Full point group                 C1      NOp   1
 Largest Abelian subgroup         C1      NOp   1
 Largest concise Abelian subgroup C1      NOp   1
                         Standard orientation:                         
 ---------------------------------------------------------------------
 Center     Atomic      Atomic             Coordinates (Angstroms)
 Number     Number       Type             X           Y           Z
 ---------------------------------------------------------------------
      1          6           0        1.176695    0.367785   -0.013837
      2          6           0        0.668030   -1.060357   -0.047927
      3          6           0       -0.668514   -1.060437   -0.048120
      4          6           0       -1.177109    0.367416   -0.014155
      5          1           0        1.374133   -1.886454   -0.068144
      6          1           0       -1.374606   -1.886558   -0.068525
      7          6           0        0.002880    2.659463    0.026860
      8          1           0       -1.007496    3.043776    0.255784
      9          1           0        0.698971    3.035924    0.797948
     10          1           0        0.314490    3.064284   -0.953180
     11          7           0       -0.000358    1.185970    0.007787
     12          8           0       -2.311052    0.785011   -0.002678
     13          8           0        2.310931    0.784132   -0.002324
     14          8           0       -3.648100   -1.766665   -0.040870
     15          1           0       -4.192119   -1.992816    0.712531
     16          1           0       -3.637859   -0.798386   -0.081852
     17          8           0        3.646702   -1.768520   -0.041297
     18          1           0        3.636771   -0.800156   -0.080442
     19          1           0        4.190488   -1.996285    0.711799
 ---------------------------------------------------------------------
 Rotational constants (GHZ):      1.6746095      0.7111497      0.5019121
 Standard basis: VSTO-6G (5D, 7F)
 There are    49 symmetry adapted cartesian basis functions of A   symmetry.
 There are    49 symmetry adapted basis functions of A   symmetry.
    49 basis functions,   294 primitive gaussians,    49 cartesian basis functions
    29 alpha electrons       29 beta electrons
       nuclear repulsion energy       331.8997720121 Hartrees.
 Integral buffers will be    131072 words long.
 Regular integral format.
 Two-electron integral symmetry is turned off.
 Nuclear repulsion after empirical dispersion term =      331.8955476229 Hartrees.
 ------------------------------------------------------------------------------
 Polarizable Continuum Model (PCM)
 =================================
 Model                : C-PCM.
 Atomic radii         : UFF (Universal Force Field).
 Polarization charges : Total charges.
 Charge compensation  : None.
 Solution method      : On-the-fly selection.
 Cavity type          : Scaled VdW (van der Waals Surface) (Alpha=1.100).
 Cavity algorithm     : GePol (No added spheres)
                        Default sphere list used, NSphG=   19.
                        Lebedev-Laikov grids with approx.  5.0 points / Ang**2.
                        Smoothing algorithm: Karplus/York (Gamma=1.0000).
                        Polarization charges: spherical gaussians, with
                                              point-specific exponents (IZeta= 3).
                        Self-potential: point-specific (ISelfS= 7).
                        Self-field    : sphere-specific E.n sum rule (ISelfD= 2).
 1st derivatives      : Analytical E(r).r(x)/FMM algorithm (CHGder, D1EAlg=3).
                        Cavity 1st derivative terms included.
 Solvent              : Water, Eps=  78.355300 Eps(inf)=   1.777849
 ------------------------------------------------------------------------------
 Spheres list:
 ISph  on   Nord     Re0    Alpha      Xe            Ye            Ze
    1   C      1    1.9255  1.100      1.176695      0.367785     -0.013837
    2   C      2    1.9255  1.100      0.668030     -1.060357     -0.047927
    3   C      3    1.9255  1.100     -0.668514     -1.060437     -0.048120
    4   C      4    1.9255  1.100     -1.177109      0.367416     -0.014155
    5   H      5    1.4430  1.100      1.374133     -1.886454     -0.068144
    6   H      6    1.4430  1.100     -1.374606     -1.886558     -0.068525
    7   C      7    1.9255  1.100      0.002880      2.659463      0.026860
    8   H      8    1.4430  1.100     -1.007496      3.043776      0.255784
    9   H      9    1.4430  1.100      0.698971      3.035924      0.797948
   10   H     10    1.4430  1.100      0.314490      3.064284     -0.953180
   11   N     11    1.8300  1.100     -0.000358      1.185970      0.007787
   12   O     12    1.7500  1.100     -2.311052      0.785011     -0.002678
   13   O     13    1.7500  1.100      2.310931      0.784132     -0.002324
   14   O     14    1.7500  1.100     -3.648100     -1.766665     -0.040870
   15   H     15    1.4430  1.100     -4.192119     -1.992816      0.712531
   16   H     16    1.4430  1.100     -3.637859     -0.798386     -0.081852
   17   O     17    1.7500  1.100      3.646702     -1.768520     -0.041297
   18   H     18    1.4430  1.100      3.636771     -0.800156     -0.080442
   19   H     19    1.4430  1.100      4.190488     -1.996285      0.711799
 ------------------------------------------------------------------------------
 Do NDO integrals.
 One-electron integrals computed using PRISM.
 NBasis=    49 RedAO= F EigKep=  0.00D+00  NBF=    49
 NBsUse=    49 1.00D-04 EigRej=  0.00D+00 NBFU=    49
 Initial guess from the checkpoint file:  "PM6_2H2O_dienophile_pm6_cpcmtoluene_1_water.chk"
 B after Tr=     0.000000    0.000000    0.000000
         Rot=    1.000000    0.000106   -0.000002    0.000020 Ang=   0.01 deg.
 Overlap will be assumed to be unity.
 Keep J ints in memory in canonical form, NReq=6432035.
 Requested convergence on RMS density matrix=1.00D-08 within 128 cycles.
 Requested convergence on MAX density matrix=1.00D-06.
 Requested convergence on             energy=1.00D-06.
 No special actions if energy rises.
 Inv3:  Mode=1 IEnd=     9229548.
 Iteration    1 A*A^-1 deviation from unit magnitude is 5.33D-15 for   1752.
 Iteration    1 A*A^-1 deviation from orthogonality  is 1.48D-15 for   1728    872.
 Iteration    1 A^-1*A deviation from unit magnitude is 5.33D-15 for   1752.
 Iteration    1 A^-1*A deviation from orthogonality  is 1.74D-15 for   1342    467.
 Error on total polarization charges = -0.00035
 SCF Done:  E(RPM6D3) = -0.287021017489     A.U. after   11 cycles
            NFock= 10  Conv=0.40D-08     -V/T= 0.9914
 D1PCM: C-PCM CHGder 1st derivatives, ID1Alg=3 FixD1E=F DoIter=F DoCFld=F I1PDM=0.
 Calling FoFJK, ICntrl=      2127 FMM=F ISym2X=0 I1Cent= 0 IOpClX= 0 NMat=1 NMatS=1 NMatT=0.
 ***** Axes restored to original set *****
 -------------------------------------------------------------------
 Center     Atomic                   Forces (Hartrees/Bohr)
 Number     Number              X              Y              Z
 -------------------------------------------------------------------
      1        6           0.000222041   -0.000461589    0.000035933
      2        6           0.000268905    0.000109787    0.000063253
      3        6          -0.000268891    0.000115707    0.000066341
      4        6          -0.000226626   -0.000465738    0.000038768
      5        1          -0.000002597   -0.000058593   -0.000045912
      6        1           0.000003322   -0.000064173   -0.000046983
      7        6           0.000047478    0.000082871   -0.000022307
      8        1          -0.000039758   -0.000000994   -0.000018232
      9        1           0.000002831    0.000004073   -0.000021580
     10        1          -0.000010767    0.000049503   -0.000001591
     11        7          -0.000004611   -0.000127874   -0.000058507
     12        8           0.000265272    0.000251740    0.000039119
     13        8          -0.000255308    0.000242242    0.000034610
     14        8           0.000117096    0.000075283    0.000582367
     15        1          -0.000364821    0.000087106   -0.000528969
     16        1           0.000284055    0.000001455   -0.000085093
     17        8          -0.000113439    0.000076002    0.000576941
     18        1          -0.000287795   -0.000002787   -0.000081963
     19        1           0.000363612    0.000085977   -0.000526195
 -------------------------------------------------------------------
 Cartesian Forces:  Max     0.000582367 RMS     0.000219369

 GradGradGradGradGradGradGradGradGradGradGradGradGradGradGradGradGradGrad
 Berny optimization.
 Using GEDIIS/GDIIS optimizer.
 FormGI is forming the generalized inverse of G from B-inverse, IUseBI=4.
 Internal  Forces:  Max     0.000645057 RMS     0.000171101
 Search for a local minimum.
 Step number   3 out of a maximum of   90
 All quantities printed in internal units (Hartrees-Bohrs-Radians)
 Mixed Optimization -- En-DIIS/RFO-DIIS
 Swapping is turned off.
 Update second derivatives using D2CorX and points    1    2    3
 DE= -2.21D-05 DEPred=-1.71D-05 R= 1.29D+00
 TightC=F SS=  1.41D+00  RLast= 3.07D-02 DXNew= 8.4853D-01 9.2000D-02
 Trust test= 1.29D+00 RLast= 3.07D-02 DXMaxT set to 5.05D-01
 ITU=  1  1  0
     Eigenvalues ---    0.00230   0.00309   0.00724   0.00873   0.01091
     Eigenvalues ---    0.01146   0.01331   0.01444   0.01633   0.01837
     Eigenvalues ---    0.02210   0.02262   0.03021   0.03921   0.04224
     Eigenvalues ---    0.04244   0.07246   0.07313   0.11635   0.16000
     Eigenvalues ---    0.16000   0.16000   0.16000   0.16000   0.16000
     Eigenvalues ---    0.16074   0.16178   0.22403   0.22685   0.24823
     Eigenvalues ---    0.24995   0.25000   0.25000   0.25837   0.29621
     Eigenvalues ---    0.30604   0.33137   0.33151   0.33166   0.34955
     Eigenvalues ---    0.35068   0.35685   0.38288   0.39522   0.50309
     Eigenvalues ---    0.53663   0.53961   0.55611   0.56801   1.01345
     Eigenvalues ---    1.05939
 En-DIIS/RFO-DIIS IScMMF=        0 using points:     3    2    1
 RFO step:  Lambda=-5.22249748D-06.
 DidBck=F Rises=F RFO-DIIS coefs:    1.43225   -0.35270   -0.07955
 Iteration  1 RMS(Cart)=  0.00607815 RMS(Int)=  0.00001680
 Iteration  2 RMS(Cart)=  0.00001742 RMS(Int)=  0.00000074
 Iteration  3 RMS(Cart)=  0.00000000 RMS(Int)=  0.00000074
 Variable       Old X    -DE/DX   Delta X   Delta X   Delta X     New X
                                 (Linear)    (Quad)   (Total)
    R1        2.86560   0.00000  -0.00026   0.00005  -0.00021   2.86539
    R2        2.70920   0.00005  -0.00029   0.00014  -0.00016   2.70905
    R3        2.28334  -0.00041   0.00044  -0.00051  -0.00007   2.28327
    R4        2.52570   0.00013   0.00020   0.00027   0.00046   2.52617
    R5        2.05401  -0.00005  -0.00027  -0.00023  -0.00050   2.05351
    R6        2.86503   0.00000  -0.00021   0.00004  -0.00017   2.86486
    R7        2.05403  -0.00005  -0.00029  -0.00024  -0.00054   2.05350
    R8        2.70914   0.00005  -0.00026   0.00014  -0.00012   2.70902
    R9        2.28363  -0.00042   0.00039  -0.00053  -0.00014   2.28350
   R10        2.08809   0.00004  -0.00010   0.00017   0.00007   2.08816
   R11        2.08799   0.00002   0.00004   0.00008   0.00012   2.08811
   R12        2.08852  -0.00002   0.00004  -0.00007  -0.00003   2.08849
   R13        2.78474  -0.00013  -0.00022  -0.00040  -0.00063   2.78411
   R14        3.90668   0.00010   0.00439   0.00362   0.00801   3.91469
   R15        3.90672   0.00010   0.00432   0.00355   0.00787   3.91459
   R16        1.80735   0.00065   0.00119   0.00159   0.00278   1.81012
   R17        1.83152   0.00016   0.00029   0.00042   0.00071   1.83223
   R18        1.83153   0.00016   0.00029   0.00042   0.00072   1.83225
   R19        1.80737   0.00064   0.00118   0.00158   0.00276   1.81013
[...]
 90,0.00646305,0.00001749,-0.00045083,0.00930622,0.00364517,0.00503764,
 0.02339645,-0.00460803,0.00201654,0.00008833,-0.03025743,0.02112786,0.
 00074552,-0.10934235,0.08956812,0.00311210,0.00873270,0.00002833,0.000
 00601,-0.00111288,-0.00080003,-0.00002201,0.13546129,0.00033399,-0.005
 09067,-0.00050231,0.00755190,0.00395208,-0.00007320,0.09159409,-0.1399
 1477,-0.00343613,0.00704365,-0.03304838,-0.00140092,0.00080066,0.00115
 612,0.00008140,-0.10650575,0.17217864,0.00001742,-0.00045663,0.0093004
 4,0.00032730,-0.00014977,0.00647449,0.00323895,-0.00348968,-0.04156533
 ,0.00025353,-0.00137052,0.00715963,0.00002143,0.00008342,-0.00137422,-
 0.00392806,0.00530106,0.02339764,0.00634161,-0.01872705,-0.00067586,-0
 .00376296,-0.00404784,-0.00007236,-0.00345427,0.00399081,0.00007819,0.
 00685263,0.01813175,0.00064330,0.00077853,-0.00072245,-0.00001310,0.00
 071017,0.00069169,0.00001197,0.41376511,-0.01050843,-0.02011087,-0.000
 50606,-0.00037477,0.00072454,-0.00005922,0.00041046,0.00077033,-0.0000
 6731,0.01061225,-0.02034615,-0.00052311,-0.00002033,0.00001938,0.00000
 184,0.00002658,0.00002476,0.00000078,-0.00078760,0.45206165,-0.0009225
 3,-0.00085308,-0.00770778,-0.00019297,-0.00018887,0.00355670,0.0002235
 4,-0.00021670,0.00388681,0.00085900,-0.00091330,-0.00855013,0.00003996
 ,-0.00002527,0.00011943,-0.00004263,-0.00002945,0.00016010,-0.00006724
 ,0.00121475,0.37676651,-0.00239116,0.00001026,-0.00008240,0.00024156,0
 .00060250,0.00000197,-0.00016246,0.00038620,0.00000394,0.00298875,0.00
 056628,0.00008450,-0.00015111,-0.00003918,-0.00000465,0.00011240,-0.00
 006056,-0.00000222,-0.18387776,-0.05691201,-0.03850737,0.21687702,0.00
 131054,-0.00326594,-0.00096659,-0.00084747,-0.00088787,0.00015913,-0.0
 0041365,0.00070388,0.00017015,0.00182818,-0.00420287,-0.00102236,0.000
 15398,-0.00017601,0.00000316,0.00012586,0.00010373,0.00000447,-0.04729
 964,-0.04959205,-0.01272256,0.07258689,0.07897343,-0.00044947,0.000046
 18,0.00025169,0.00007192,0.00013530,0.00002981,-0.00006572,0.00012547,
 -0.00008690,0.00059252,-0.00060515,0.00068815,-0.00004139,-0.00001496,
 0.00000379,0.00004398,-0.00001183,-0.00000877,-0.03855006,-0.01413477,
 -0.04235929,0.04754000,0.01891488,0.04364189,0.00194049,-0.00079362,-0
 .00026905,-0.00007947,-0.00028294,0.00004096,0.00012436,-0.00039113,0.
 00001335,-0.00168327,0.00036993,0.00014749,0.00006770,0.00004364,0.000
 00389,-0.00009438,0.00003047,0.00000269,-0.10901557,0.03882407,0.08074
 394,-0.02172401,0.00257287,0.01423334,0.12535093,-0.00139084,-0.002549
 23,-0.00235372,0.00030920,0.00041660,0.00045613,0.00060050,-0.00073113
 ,0.00056999,-0.00121053,-0.00261304,-0.00267831,-0.00007893,0.00008321
 ,0.00000818,-0.00012056,-0.00011855,0.00002185,0.03154830,-0.04748670,
 -0.03582250,-0.00218155,0.00427424,0.00220718,-0.04935901,0.07614513,-
 0.00154259,-0.00098929,0.00039334,0.00014510,0.00034610,-0.00003845,-0
 .00021926,0.00043352,-0.00003027,0.00160005,0.00011061,0.00015303,-0.0
 0011769,-0.00004626,-0.00000469,0.00012379,-0.00004116,-0.00000439,0.0
 8080216,-0.04040335,-0.11922572,0.00218577,0.00068727,0.00388024,-0.09
 959383,0.05285424,0.13816923,0.00070641,-0.00087250,0.00021297,-0.0000
 2845,-0.00011207,-0.00007398,0.00002750,-0.00013732,0.00002211,-0.0007
 3144,0.00073821,-0.00013014,0.00001814,0.00001846,-0.00000675,-0.00003
 623,0.00001105,0.00000553,-0.04605969,0.01784436,-0.04221533,-0.009690
 15,0.00344181,-0.02105090,0.00448381,-0.00226521,0.01306683,0.04745953
 ,-0.00048638,-0.00185209,0.00278051,0.00013553,0.00012500,-0.00063832,
 0.00022516,-0.00032566,-0.00075407,-0.00064981,-0.00214138,0.00314332,
 -0.00002772,0.00004030,-0.00001377,-0.00005162,-0.00003988,-0.00002810
 ,0.01478219,-0.05217143,0.05324798,-0.00060898,0.00461975,-0.00251581,
 -0.00075547,0.00485970,-0.00207364,-0.02276011,0.08251313,0.00205181,0
 .00053463,0.00048041,-0.00017007,-0.00045658,-0.00011023,0.00022979,-0
 .00052970,-0.00014545,-0.00221306,0.00007525,0.00036537,0.00013892,0.0
 0006253,-0.00000297,-0.00014736,0.00005492,-0.00000631,-0.04230029,0.0
 5958084,-0.17675920,-0.00919999,0.00115316,-0.00844362,0.00083373,0.00
 295295,-0.02267360,0.05212825,-0.07572653,0.20861301,-0.11307174,-0.06
 070987,-0.00263262,0.00666031,-0.02102081,-0.00059290,0.00661556,0.021
 03477,0.00060514,-0.11369570,0.06050125,0.00285383,0.00019734,-0.00052
 185,-0.00002583,0.00021216,0.00053756,0.00002202,-0.07553182,0.0010206
 3,0.00006254,-0.00261528,-0.03273011,-0.00224114,0.00046123,0.02365961
 ,0.00370122,0.00356572,0.00986724,-0.00144328,0.53387540,-0.10576573,-
 0.15587592,-0.00415104,-0.02108915,-0.06396836,-0.00280166,0.02105157,
 -0.06402454,-0.00284900,0.10522370,-0.15530578,-0.00440254,0.00383670,
 -0.00128992,0.00000298,-0.00384296,-0.00129494,0.00001299,0.00218838,-
 0.26320403,-0.00335385,-0.01302051,-0.03148783,-0.00422532,0.00918397,
 -0.03278515,-0.01099622,0.00380942,-0.03629856,0.01240005,-0.00202968,
 0.77519894,-0.00314519,-0.00408132,-0.03344138,-0.00060476,-0.00270588
 ,0.01122844,0.00060755,-0.00274447,0.01099037,0.00337354,-0.00424310,-
 0.03201450,0.00011251,0.00003262,-0.00163084,-0.00011617,0.00003302,-0
 .00165846,0.00010427,-0.00511576,-0.03211124,-0.00176945,-0.00668343,0
 .00256712,0.00366993,-0.01879408,-0.00047412,-0.00188990,0.02319048,-0
 .00118207,-0.00066613,0.02010323,0.05977952,0.03149703,0.01554801,0.00
 062323,-0.00079556,-0.00272613,-0.00002160,-0.03049601,-0.03032127,-0.
 00101755,-0.60626592,-0.24466860,-0.00846827,0.00117646,0.00137872,0.0
 0002943,-0.00200190,0.00175798,0.00004640,-0.00373445,0.00157506,-0.00
 012678,-0.00061817,-0.00096701,-0.00031452,0.00075664,-0.00010408,-0.0
 0076432,0.00038216,-0.00021279,0.00099158,-0.12563740,0.01164498,0.000
 88290,0.74909836,0.00681584,-0.00549094,-0.00052944,-0.00190067,-0.003
 52352,-0.00004137,-0.03935185,-0.02330515,-0.00139440,-0.22120963,-0.1
 3842184,-0.00319620,0.00004451,0.00147153,0.00007965,-0.00087615,0.001
 26394,0.00005978,0.00198353,-0.00016576,-0.00016304,-0.00124255,0.0006
 2363,0.00006342,-0.00002147,0.00032948,0.00003879,-0.00015698,0.000348
 40,-0.00002766,0.00744618,0.01521417,0.00052199,0.24763358,0.15386806,
 0.00023482,-0.00045364,0.00619552,-0.00008976,-0.00009719,-0.00066990,
 -0.00130714,-0.00130899,0.01580474,-0.00752869,-0.00311763,-0.05096932
 ,-0.00000474,0.00008564,-0.00117258,-0.00003613,0.00004906,-0.00034013
 ,0.00019335,-0.00000289,0.00112306,-0.00025549,0.00019549,-0.00012925,
 -0.00000507,0.00028452,-0.00001533,-0.00001544,-0.00030192,-0.00005532
 ,0.00057972,0.00010121,0.00875714,0.00816884,0.00456561,0.02341061,-0.
 60719179,0.24388941,0.00974386,-0.03054964,0.03043447,0.00112954,-0.00
 081391,0.00274958,0.00002320,0.03138506,-0.01556987,-0.00066729,-0.002
 02075,-0.00175896,-0.00004320,0.00118324,-0.00138555,-0.00003459,-0.00
 332878,-0.00172059,0.00014611,0.00103358,0.00016161,0.00022827,-0.0005
 7379,0.00064545,0.00061330,-0.00008512,0.00056458,-0.00089812,-0.12547
 459,-0.01117079,-0.00055211,-0.01753055,-0.00100740,0.00001661,0.74979
 590,0.22091569,-0.13813489,-0.00370891,0.03936831,-0.02334234,-0.00148
 940,0.00186991,-0.00352657,-0.00004758,-0.00691391,-0.00542265,-0.0005
 0598,0.00087207,0.00126503,0.00005748,-0.00003918,0.00147165,0.0000797
 3,-0.00173075,-0.00050103,-0.00016810,-0.00005016,0.00035471,0.0000283
 7,0.00055301,0.00020412,0.00012126,0.00043163,0.00034215,-0.00012838,-
 0.00705302,0.01549794,0.00054143,0.00100661,0.00191016,0.00013947,-0.2
 4738375,0.15401516,0.00878827,-0.00369878,-0.05115852,0.00141788,-0.00
 138072,0.01579215,0.00008960,-0.00010078,-0.00065486,-0.00029785,-0.00
 041584,0.00615800,0.00003867,0.00005336,-0.00034350,-0.00000056,0.0000
 8859,-0.00117524,-0.00015483,0.00001512,0.00104855,0.00001071,0.000105
 20,-0.00003262,0.00017320,0.00028483,-0.00012476,-0.00005257,-0.000298
 29,-0.00008141,-0.00022096,0.00014774,0.00902974,0.00002049,0.00014295
 ,-0.00139223,-0.00975213,0.00520247,0.02348727,0.00126363,-0.00112978,
 -0.00006037,-0.00058077,0.00097376,0.00007058,-0.00394391,0.00149516,-
 0.00012303,0.00266296,-0.00091343,-0.00010645,0.00023792,0.00036401,-0
 .00000486,0.00238179,-0.00156200,0.00020897,-0.00016365,0.00003961,0.0
 0001121,-0.00005472,-0.00005500,-0.00002322,0.00004204,0.00002377,-0.0
 0005998,0.00001634,0.00001153,0.00007000,-0.00114277,0.00080172,0.0000
 5425,-0.00231379,0.00218271,0.00001715,-0.00090478,0.00037321,0.000016
 95,0.07563787,-0.00117399,0.00012323,-0.00000607,0.00038158,-0.0003267
 2,-0.00000835,0.00055350,0.00057618,0.00007992,-0.00441926,-0.00027956
 ,0.00003300,-0.00009370,-0.00014760,-0.00001286,0.00031091,-0.00081803
 ,-0.00006153,0.00014494,-0.00003570,-0.00000612,0.00004303,0.00006845,
 0.00002076,-0.00003149,-0.00002023,0.00004409,-0.00001322,-0.00000359,
 -0.00005068,0.00164852,-0.00026984,-0.00002648,0.00623990,-0.00374874,
 -0.00017156,0.00070706,-0.00015320,-0.00000333,-0.03983598,0.22913404,
 0.00051184,-0.00006896,0.00006310,-0.00013979,0.00015922,-0.00006526,-
 0.00057644,0.00014032,0.00009905,0.00166606,-0.00007185,0.00014979,0.0
 0004930,0.00006723,0.00004370,0.00074993,-0.00012815,-0.00047437,-0.00
 005760,0.00000294,-0.00001791,-0.00001343,-0.00002281,0.00000990,0.000
 01602,0.00001802,-0.00001406,-0.00000281,-0.00001104,0.00002521,-0.000
 69372,0.00014054,-0.00000003,-0.00182960,0.00095508,0.00025509,-0.0003
 1123,0.00008355,-0.00001556,0.09953375,-0.04044119,0.14149392,-0.00030
 173,0.00003415,0.00002362,0.00009469,-0.00005306,-0.00002011,-0.000014
 21,0.00008009,0.00001011,-0.00119700,0.00013995,0.00003607,-0.00002157
 ,-0.00004539,0.00001190,-0.00026388,-0.00008787,-0.00013353,0.00003100
 ,-0.00001210,-0.00000212,0.00000988,0.00001496,0.00000396,-0.00000782,
 -0.00000427,0.00001021,-0.00000325,-0.00000322,-0.00001275,0.00043136,
 -0.00008587,-0.00001155,0.00104457,-0.00055976,0.00005386,0.00016938,-
 0.00002673,-0.00000524,-0.06304982,0.03805253,-0.08629738,0.07055903,0
 .00005725,-0.00011387,0.00000247,-0.00004495,0.00007760,0.00000131,-0.
 00011039,0.00003629,-0.00003095,0.00019079,-0.00030447,-0.00000132,0.0
 0001439,0.00003171,0.00000332,0.00045139,-0.00000983,0.00001902,-0.000
 00290,0.00000857,0.00000201,-0.00000765,-0.00000383,-0.00000424,0.0000
 0150,0.00000246,-0.00000377,0.00000156,0.00000215,0.00000341,-0.000028
 89,0.00006997,0.00000104,0.00016989,0.00005095,-0.00003822,-0.00004760
 ,0.00002571,0.00000078,0.00959818,-0.03658137,0.01202018,-0.03920051,0
 .06403195,-0.00041957,0.00013035,-0.00002441,0.00014496,-0.00016671,0.
 00000616,0.00041888,-0.00008068,0.00007656,-0.00142794,0.00024150,-0.0
 0004214,-0.00004654,-0.00006791,-0.00001579,-0.00076880,0.00002713,-0.
 00007312,0.00004873,-0.00000683,0.00000362,0.00001457,0.00001848,0.000
 00060,-0.00001211,-0.00001104,0.00001478,-0.00000125,0.00000197,-0.000
 02034,0.00054533,-0.00015952,-0.00001167,0.00128534,-0.00073122,0.0000
 4545,0.00026161,-0.00007756,0.00000495,-0.08797289,0.05239513,-0.12331
 252,0.09713862,-0.05230484,0.13621077,-0.00216869,0.00033931,0.0000234
 2,0.00067437,-0.00059120,-0.00003689,0.00036204,0.00035678,0.00003983,
 -0.01064966,0.00146320,0.00008494,-0.00019512,-0.00028830,-0.00000457,
 -0.00109769,-0.00072147,-0.00005514,0.00029417,-0.00004908,-0.00000657
 ,0.00005829,0.00010249,0.00003002,-0.00005989,-0.00002881,0.00007735,-
 0.00002590,-0.00000878,-0.00009361,0.00293323,-0.00067190,-0.00003652,
 0.00487563,0.00025837,-0.00002147,0.00129502,-0.00030754,-0.00001252,-
 0.01010488,-0.00249674,-0.01260906,-0.00747404,0.02895604,-0.00920465,
 0.02131187,0.00206308,0.00073742,0.00002912,-0.00023163,-0.00007849,-0
 .00000290,0.00004650,-0.00024116,0.00000317,0.00961065,0.00181770,0.00
 004884,0.00008328,0.00009557,0.00000545,-0.00141521,0.00020437,-0.0000
 2292,-0.00026084,0.00001108,0.00000142,-0.00004429,-0.00011109,-0.0000
 2382,0.00004937,0.00002118,-0.00006139,0.00002111,-0.00000095,0.000075
 04,-0.00346627,0.00002140,0.00000124,-0.00844162,-0.00040844,0.0000713
 3,-0.00114368,0.00011133,0.00000317,0.02762763,-0.18750582,0.02715243,
 0.00175998,-0.02732315,0.00079509,-0.02629207,0.21262062,-0.00003838,-
 0.00006385,-0.00001297,-0.00001218,0.00003076,0.00003456,-0.00003577,0
 .00002502,-0.00004295,-0.00004493,-0.00013352,0.00014632,0.00000385,0.
 00000868,-0.00001462,0.00019875,-0.00002005,0.00017475,-0.00000200,0.0
 0000305,0.00004372,-0.00000343,0.00000477,-0.00001421,-0.00000205,-0.0
 0000217,-0.00000290,0.00000567,0.00000340,-0.00000437,0.00007205,0.000
 02616,0.00009105,0.00045570,-0.00035614,-0.00083841,0.00001353,0.00000
 523,0.00000191,-0.01163533,-0.01178444,-0.01823914,-0.01080471,0.04033
 032,-0.01286317,0.02182842,-0.02807694,0.03154067,0.00265181,0.0009123
 8,0.00009870,-0.00394609,-0.00150146,0.00012531,-0.00058316,-0.0009742
 4,-0.00006853,0.00125787,0.00112965,0.00005886,0.00237939,0.00156934,-
 0.00020616,0.00023814,-0.00036433,0.00000441,-0.00017403,-0.00004227,-
 0.00001011,0.00006551,-0.00002697,0.00002058,-0.00003710,0.00003331,0.
 00005921,-0.00001202,0.00001236,-0.00006769,-0.00114074,-0.00079498,-0
 .00005067,-0.00090129,-0.00037519,-0.00001525,-0.00231033,-0.00218524,
 -0.00001585,-0.00012601,0.00006316,-0.00003612,0.00001134,-0.00000603,
 0.00003033,0.00013072,-0.00006225,0.00000225,0.07543449,0.00441548,-0.
 00028881,0.00002039,-0.00055185,0.00057796,0.00007889,-0.00038326,-0.0
 0032686,-0.00000714,0.00116879,0.00012209,-0.00000810,-0.00031012,-0.0
 0082162,-0.00005932,0.00009371,-0.00014757,-0.00001300,-0.00014730,-0.
 00004082,-0.00000643,0.00004885,-0.00002485,0.00001570,-0.00003096,0.0
 0004488,0.00004739,-0.00000882,0.00002203,-0.00004813,-0.00164659,-0.0
 0025671,-0.00002184,-0.00070514,-0.00015393,-0.00000188,-0.00625009,-0
 .00375671,-0.00016882,-0.00006312,0.00004379,-0.00001495,0.00001102,-0
 .00000634,0.00001318,0.00006978,-0.00005029,0.00000153,0.04005074,0.22
 920170,-0.00166242,-0.00007050,0.00015345,0.00057757,0.00014062,0.0000
 9963,0.00014085,0.00016031,-0.00006537,-0.00050979,-0.00006988,0.00006
 367,-0.00074596,-0.00012765,-0.00048386,-0.00004941,0.00006753,0.00004
 388,0.00005775,0.00000487,-0.00000974,-0.00001972,0.00001136,-0.000009
 05,0.00000453,-0.00001261,-0.00000687,0.00001299,-0.00001383,0.0000241
 6,0.00069253,0.00013586,0.00000198,0.00031076,0.00008418,-0.00001646,0
 .00182521,0.00095256,0.00025551,0.00003619,-0.00001499,0.00000477,-0.0
 0000823,0.00000059,-0.00000609,-0.00003239,0.00001968,0.00000014,-0.09
 941198,-0.04028631,0.14163428,-0.01064749,-0.00145290,-0.00006173,0.00
 035918,-0.00035849,-0.00003834,0.00067765,0.00059239,0.00003503,-0.002
 16128,-0.00033825,-0.00002006,-0.00109973,0.00072312,0.00005547,-0.000
 19545,0.00028880,0.00000481,0.00029802,0.00006101,0.00000532,-0.000090
 49,0.00003418,-0.00002507,0.00004150,-0.00006626,-0.00007662,0.0000105
 0,-0.00003022,0.00008925,0.00293068,0.00064845,0.00002782,0.00129291,0
 .00030895,0.00000987,0.00487899,-0.00025956,0.00001172,0.00013084,-0.0
 0006989,0.00003236,-0.00001873,0.00000727,-0.00002992,-0.00014053,0.00
 008318,0.00000054,-0.01008568,0.00233990,0.01261890,0.02128708,-0.0096
 1253,0.00183777,0.00007440,-0.00004768,-0.00024532,0.00000444,0.000232
 70,-0.00007819,-0.00000338,-0.00205665,0.00074116,0.00003251,0.0014207
 2,0.00020595,-0.00002406,-0.00008359,0.00009581,0.00000547,0.00026088,
 0.00002692,0.00000202,-0.00007335,0.00002694,-0.00002040,0.00003148,-0
 .00007470,-0.00006267,0.00000798,-0.00003852,0.00007170,0.00346154,-0.
 00001068,-0.00000937,0.00114358,0.00011177,0.00000078,0.00845686,-0.00
 041231,0.00006053,0.00006237,-0.00005040,0.00001970,-0.00001313,0.0000
 0560,-0.00001634,-0.00008325,0.00007392,-0.00000159,-0.02773388,-0.187
 48656,0.02690735,0.02641798,0.21262404,0.00004915,-0.00012905,0.000145
 95,0.00003497,0.00002565,-0.00004387,0.00001151,0.00002977,0.00003429,
 0.00003915,-0.00006262,-0.00001241,-0.00019668,-0.00002100,0.00017512,
 -0.00000373,0.00000842,-0.00001458,0.00000308,0.00000269,0.00003307,-0
 .00000039,-0.00000042,0.00000341,0.00000764,0.00000594,-0.00000794,-0.
 00000813,-0.00000009,-0.00000422,-0.00007213,0.00002596,0.00009183,-0.
 00001408,0.00000490,0.00000190,-0.00045212,-0.00035405,-0.00084487,-0.
 00000235,0.00000156,0.00000013,0.00000205,-0.00000068,0.00000003,-0.00
 000044,-0.00000162,-0.00000002,0.01156982,-0.01206431,-0.01824161,-0.0
 2178955,-0.02781089,0.03150271,-0.00119364,-0.00013833,-0.00003291,-0.
 00001426,-0.00007999,-0.00001039,0.00009508,0.00005315,0.00001982,-0.0
 0030036,-0.00003426,-0.00002312,-0.00026621,0.00008740,0.00013475,-0.0
 0002162,0.00004544,-0.00001188,0.00003141,0.00001311,0.00000205,-0.000
 01163,0.00000607,-0.00000311,0.00000654,-0.00000985,-0.00001061,0.0000
 0214,-0.00000341,0.00001285,0.00043034,0.00008323,0.00000966,0.0001689
 1,0.00002688,0.00000492,0.00104293,0.00055967,-0.00005495,0.00001135,-
 0.00001103,0.00000823,0.00000098,0.00000075,-0.00000496,-0.00001873,0.
 00001311,-0.00000204,-0.06285316,-0.03810093,0.08616228,-0.00746773,-0
 .00179197,0.01082229,0.07035783,-0.00019068,-0.00030517,-0.00000112,0.
 00011068,0.00003691,-0.00003101,0.00004524,0.00007769,0.00000108,-0.00
 005702,-0.00011413,0.00000262,-0.00045308,-0.00001050,0.00001877,-0.00
 001441,0.00003175,0.00000336,0.00000385,0.00000781,0.00000091,-0.00000
 327,0.00000357,-0.00000097,0.00000583,-0.00000236,-0.00000564,0.000000
 69,-0.00000058,0.00000339,0.00002936,0.00007094,0.00000085,0.00004734,
 0.00002596,0.00000071,-0.00016985,0.00005147,-0.00003830,0.00000604,-0
 .00000633,0.00000058,-0.00000075,0.00000059,-0.00000059,-0.00000726,0.
 00000558,-0.00000068,-0.00970446,-0.03665278,0.01211171,-0.02892923,-0
 .02735247,0.04033935,0.03928090,0.06413274,0.00142688,0.00023926,-0.00
 004520,-0.00041882,-0.00008095,0.00007661,-0.00014565,-0.00016681,0.00
 000653,0.00041819,0.00013000,-0.00002502,0.00077046,0.00002755,-0.0000
 7345,0.00004657,-0.00006799,-0.00001588,-0.00004971,-0.00000803,0.0000
 0018,0.00001730,-0.00000918,0.00000690,-0.00000860,0.00001086,0.000012
 44,-0.00000718,0.00000730,-0.00001923,-0.00054546,-0.00015598,-0.00001
 153,-0.00026117,-0.00007795,0.00000557,-0.00128726,-0.00073265,0.00004
 566,-0.00003034,0.00001321,-0.00000609,0.00000496,-0.00000059,0.000006
 19,0.00002991,-0.00001633,0.00000002,0.08791267,0.05252323,-0.12344271
 ,0.00915016,0.00076984,-0.01281851,-0.09702262,-0.05240518,0.13629738\
 \-0.00001370,0.00002305,0.00000482,0.00002344,-0.00001229,-0.00000348,
 -0.00002319,-0.00001156,0.00000016,0.00000982,0.00002367,-0.00000487,-
 0.00000576,0.00000599,-0.00000103,0.00000521,0.00000517,-0.00000157,0.
 00000383,0.00000743,0.00000826,-0.00000042,-0.00000388,0.00000323,-0.0
 0000262,-0.00000304,-0.00000118,0.00000044,0.00000031,0.00000247,0.000
 00143,-0.00001563,0.00000041,-0.00001183,-0.00000750,0.00000112,0.0000
 1442,-0.00000766,0.00000083,-0.00000544,0.00001588,-0.00000692,0.00000
 378,-0.00000424,0.00000221,0.00000223,-0.00001498,-0.00000131,0.000005
 18,0.00001621,-0.00000582,-0.00000261,-0.00001385,-0.00000031,-0.00000
 422,-0.00000310,0.00000297\\\@


          EVOLUTION
 IN THE BEGINNING GOD MADE MAN.
 HE WORKED THE DIRT WITH HIS HANDS.
 THEN GOD DECIDED TO GIVE MAN SCIENCE,
 MAN SHOULD BE USEFUL (LIKE AN APPLIANCE.)
 BUT SOON MAN'S KNOWLEDGE GREW TOO GREAT,
 TO THE HEADING SCIENCE HE COULDN'T RELATE
 SO GOD SAID "LETS HAVE DIFFERENT FIELDS,
 WE'LL DIVIDE THEM UP, SEE WHAT IT YIELDS."
 ENTER PHYSICS, CHEMISTRY, BIO
 THEY SPRANG UP AROUND THE NILE.
 BUT CHEMISTRY SURPASSED THE REST
 FAR AND AWAY IT WAS THE BEST.
 EXPERIMENT WAS GOD'S DECREE
 EXPERIMENT DID CHEMISTS WITH LOTS OF GLEE
 BUT SOON THEIR TESTS BEGAN TO BOG,
 THEY FOUND THEMSELVES DEEP IN A FOG.
 "GIVE US SOME HELP" THEY CRIED TO GOD.
 GOD LOOKED AROUND, THEN GAVE THE NOD.
 ENTER EINSTEIN, HEISENBERG, BOHR,
 REACTION PATHS WERE CLEAR ONCE MORE.
 WITH THEORISTS GOD SEND DIRECTION
 AND THEN HE STOPPED, HE'D MADE PERFECTION.
          -- THOMAS A. HOLME, 1981
 Job cpu time:       0 days  0 hours  0 minutes 18.2 seconds.
 File lengths (MBytes):  RWF=     61 Int=      0 D2E=      0 Chk=      8 Scr=      1
 Normal termination of Gaussian 09 at Tue Aug 18 03:50:58 2020.
