 Entering Gaussian System, Link 0=g09
 Input=freq_TS_4H2O_associated_cycloaddition_PM6_toluene_3_6.com
 Output=freq_TS_4H2O_associated_cycloaddition_PM6_toluene_3_6.log
 Initial command:
 /apps/applications/gaussian/G09.D01/2/default/g09/l1.exe "/local/726119.1.40core-192G.q/Gau-353986.inp" -scrdir="/local/726119.1.40core-192G.q/"
 Entering Link 1 = /apps/applications/gaussian/G09.D01/2/default/g09/l1.exe PID=    353987.
  
 Copyright (c) 1988,1990,1992,1993,1995,1998,2003,2009,2013,
            Gaussian, Inc.  All Rights Reserved.
  
 This is part of the Gaussian(R) 09 program.  It is based on
 the Gaussian(R) 03 system (copyright 2003, Gaussian, Inc.),
 the Gaussian(R) 98 system (copyright 1998, Gaussian, Inc.),
 the Gaussian(R) 94 system (copyright 1995, Gaussian, Inc.),
 the Gaussian 92(TM) system (copyright 1992, Gaussian, Inc.),
 the Gaussian 90(TM) system (copyright 1990, Gaussian, Inc.),
 the Gaussian 88(TM) system (copyright 1988, Gaussian, Inc.),
 the Gaussian 86(TM) system (copyright 1986, Carnegie Mellon
 University), and the Gaussian 82(TM) system (copyright 1983,
 Carnegie Mellon University). Gaussian is a federally registered
 trademark of Gaussian, Inc.
  
 This software contains proprietary and confidential information,
 including trade secrets, belonging to Gaussian, Inc.
  
 This software is provided under written license and may be
 used, copied, transmitted, or stored only in accord with that
 written license.
  
 The following legend is applicable only to US Government
 contracts under FAR:
  
                    RESTRICTED RIGHTS LEGEND
  
 Use, reproduction and disclosure by the US Government is
 subject to restrictions as set forth in subparagraphs (a)
 and (c) of the Commercial Computer Software - Restricted
 Rights clause in FAR 52.227-19.
  
 Gaussian, Inc.
 340 Quinnipiac St., Bldg. 40, Wallingford CT 06492
  
  
 ---------------------------------------------------------------
 Warning -- This program may not be used in any manner that
 competes with the business of Gaussian, Inc. or will provide
 assistance to any competitor of Gaussian, Inc.  The licensee
 of this program is prohibited from giving any competitor of
 Gaussian, Inc. access to this program.  By using this program,
 the user acknowledges that Gaussian, Inc. is engaged in the
 business of creating and licensing software in the field of
 computational chemistry and represents and warrants to the
 licensee that it is not a competitor of Gaussian, Inc. and that
 it will not use this program in any manner prohibited above.
 ---------------------------------------------------------------
  

 Cite this work as:
 Gaussian 09, Revision D.01,
 M. J. Frisch, G. W. Trucks, H. B. Schlegel, G. E. Scuseria, 
 M. A. Robb, J. R. Cheeseman, G. Scalmani, V. Barone, B. Mennucci, 
 G. A. Petersson, H. Nakatsuji, M. Caricato, X. Li, H. P. Hratchian, 
 A. F. Izmaylov, J. Bloino, G. Zheng, J. L. Sonnenberg, M. Hada, 
 M. Ehara, K. Toyota, R. Fukuda, J. Hasegawa, M. Ishida, T. Nakajima, 
 Y. Honda, O. Kitao, H. Nakai, T. Vreven, J. A. Montgomery, Jr., 
 J. E. Peralta, F. Ogliaro, M. Bearpark, J. J. Heyd, E. Brothers, 
 K. N. Kudin, V. N. Staroverov, T. Keith, R. Kobayashi, J. Normand, 
 K. Raghavachari, A. Rendell, J. C. Burant, S. S. Iyengar, J. Tomasi, 
 M. Cossi, N. Rega, J. M. Millam, M. Klene, J. E. Knox, J. B. Cross, 
 V. Bakken, C. Adamo, J. Jaramillo, R. Gomperts, R. E. Stratmann, 
 O. Yazyev, A. J. Austin, R. Cammi, C. Pomelli, J. W. Ochterski, 
 R. L. Martin, K. Morokuma, V. G. Zakrzewski, G. A. Voth, 
 P. Salvador, J. J. Dannenberg, S. Dapprich, A. D. Daniels, 
 O. Farkas, J. B. Foresman, J. V. Ortiz, J. Cioslowski, 
 and D. J. Fox, Gaussian, Inc., Wallingford CT, 2013.
 
 ******************************************
 Gaussian 09:  ES64L-G09RevD.01 24-Apr-2013
                 7-Sep-2020 
 ******************************************
 %nprocshared=4
 Will use up to    4 processors via shared memory.
 %chk=TS_4H2O_associated_cycloaddition_PM6_toluene_6.chk
 ----------------------------------------------------------------------
 # freq pm6 scrf=(cpcm,solvent=toluene) geom=connectivity empiricaldisp
 ersion=gd3
 ----------------------------------------------------------------------
 1/10=4,30=1,38=1,57=2/1,3;
 2/12=2,17=6,18=5,40=1/2;
 3/5=2,16=1,25=1,41=3900000,70=2101,71=2,72=13,124=31,140=1/1,2,3;
 4/35=1/1;
 5/5=2,35=1,38=5,53=13,98=1/2;
 8/6=4,10=90,11=11/1;
 11/6=1,8=1,9=11,15=111,16=1/1,2,10;
 10/6=1/2;
 6/7=2,8=2,9=2,10=2,18=1,28=1/1;
 7/8=1,10=1,25=1/1,2,3,16;
 1/10=4,30=1/3;
 99//99;
 -------------------
 Title Card Required
 -------------------
 Symbolic Z-matrix:
 Charge =  0 Multiplicity = 1
 C                     0.53618  -0.69124   1.07719 
 C                     1.00503  -1.90411   0.12476 
 C                    -1.22885  -2.3724    0.68489 
 C                    -0.85367  -1.16296   1.55969 
 H                     1.16774  -0.07846   1.72533 
 H                    -1.54249  -0.5015    2.05369 
 C                    -0.27849  -2.45423  -0.51483 
 H                    -0.14059  -3.48864  -0.87453 
 H                    -0.62509  -1.86613  -1.38361 
 C                     1.03799  -2.33013   1.534 
 H                     1.90114  -2.51719   2.14689 
 C                    -0.39926  -2.57691   1.97027 
 H                    -0.67108  -3.16775   2.82348 
 H                     1.90643  -1.78448  -0.49061 
 H                    -2.24723  -2.72284   0.57926 
 N                    -0.58658   0.58172  -0.98516 
 N                     0.22252   0.75466   0.00288 
 C                    -1.98297   0.41488  -0.73223 
 C                     1.53994   1.26152  -0.44524 
 O                     1.82228   2.4349   -0.38698 
 O                    -2.7311   -0.2111   -1.45264 
 O                     2.37903   0.25097  -0.77265 
 O                    -2.41837   1.14434   0.35249 
 C                    -3.84092   1.10599   0.66564 
 H                    -3.93828   1.88766   1.42908 
 H                    -4.4351    1.33406  -0.22942 
 H                    -4.08821   0.11749   1.06234 
 C                     3.76489   0.58058  -1.09742 
 H                     3.79167   1.07341  -2.07238 
 H                     4.20083   1.21622  -0.31377 
 H                     4.22368  -0.42109  -1.12609 
 O                     4.01245   3.27228   0.47326 
 H                     3.26896   3.17847   1.07551 
 H                     3.62152   3.54449  -0.36539 
 O                     3.86642  -2.62497  -1.09761 
 H                     4.4872   -3.19326  -0.64311 
 H                     3.76111  -2.986    -1.9781 
 O                    -1.30488   2.77829   1.92034 
 H                    -1.66186   2.99349   1.05442 
 H                    -1.05143   1.85298   1.86889 
 O                    -5.13055   0.09418  -2.06799 
 H                    -4.73324  -0.65145  -1.60408 
 H                    -4.40885   0.4887   -2.5681 
 

 GradGradGradGradGradGradGradGradGradGradGradGradGradGradGradGradGradGrad
 Berny optimization.
 Initialization pass.
 Trust Radius=3.00D-01 FncErr=1.00D-07 GrdErr=1.00D-07
 Number of steps in this run=      2 maximum allowed number of steps=      2.
 GradGradGradGradGradGradGradGradGradGradGradGradGradGradGradGradGradGrad

                          Input orientation:                          
 ---------------------------------------------------------------------
 Center     Atomic      Atomic             Coordinates (Angstroms)
 Number     Number       Type             X           Y           Z
 ---------------------------------------------------------------------
      1          6           0        0.536179   -0.691243    1.077193
      2          6           0        1.005029   -1.904111    0.124764
      3          6           0       -1.228853   -2.372397    0.684892
      4          6           0       -0.853669   -1.162955    1.559685
      5          1           0        1.167739   -0.078457    1.725326
      6          1           0       -1.542490   -0.501499    2.053691
      7          6           0       -0.278487   -2.454232   -0.514831
      8          1           0       -0.140590   -3.488643   -0.874530
      9          1           0       -0.625089   -1.866128   -1.383610
     10          6           0        1.037993   -2.330126    1.534002
     11          1           0        1.901137   -2.517186    2.146894
     12          6           0       -0.399260   -2.576905    1.970274
     13          1           0       -0.671075   -3.167745    2.823479
     14          1           0        1.906425   -1.784484   -0.490607
     15          1           0       -2.247227   -2.722839    0.579264
     16          7           0       -0.586575    0.581724   -0.985155
     17          7           0        0.222522    0.754662    0.002882
     18          6           0       -1.982967    0.414878   -0.732231
     19          6           0        1.539940    1.261517   -0.445241
     20          8           0        1.822280    2.434898   -0.386981
     21          8           0       -2.731100   -0.211100   -1.452643
     22          8           0        2.379033    0.250972   -0.772654
     23          8           0       -2.418372    1.144344    0.352492
     24          6           0       -3.840923    1.105986    0.665643
     25          1           0       -3.938278    1.887659    1.429075
     26          1           0       -4.435102    1.334059   -0.229424
     27          1           0       -4.088209    0.117493    1.062342
     28          6           0        3.764891    0.580582   -1.097422
     29          1           0        3.791669    1.073412   -2.072379
     30          1           0        4.200826    1.216218   -0.313767
     31          1           0        4.223683   -0.421089   -1.126092
     32          8           0        4.012454    3.272282    0.473264
     33          1           0        3.268960    3.178472    1.075515
     34          1           0        3.621522    3.544490   -0.365391
     35          8           0        3.866420   -2.624972   -1.097605
     36          1           0        4.487202   -3.193263   -0.643109
     37          1           0        3.761106   -2.985996   -1.978104
     38          8           0       -1.304875    2.778291    1.920342
     39          1           0       -1.661856    2.993491    1.054425
     40          1           0       -1.051427    1.852976    1.868885
     41          8           0       -5.130553    0.094176   -2.067986
     42          1           0       -4.733242   -0.651446   -1.604078
     43          1           0       -4.408851    0.488696   -2.568103
 ---------------------------------------------------------------------
                    Distance matrix (angstroms):
                    1          2          3          4          5
     1  C    0.000000
     2  C    1.611828   0.000000
     3  C    2.468910   2.350163   0.000000
     4  C    1.544988   2.462330   1.539083   0.000000
     5  H    1.092909   2.433369   3.476826   2.299927   0.000000
     6  H    2.304434   3.489690   2.339282   1.075193   2.762631
     7  C    2.511245   1.535945   1.532719   2.510348   3.571299
     8  H    3.477454   2.195854   2.205021   3.441324   4.483341
     9  H    2.963857   2.221243   2.213490   3.034747   4.009424
    10  C    1.773818   1.472592   2.421026   2.222911   2.263504
    11  H    2.518221   2.295186   3.457637   3.125334   2.581277
    12  C    2.286561   2.414661   1.543456   1.540885   2.959346
    13  H    3.261907   3.418941   2.348883   2.376910   3.759106
    14  H    2.351754   1.097956   3.399619   3.494011   2.892498
    15  H    3.481762   3.384384   1.082152   2.310080   4.468580
    16  N    2.671011   3.153490   3.453753   3.097007   3.295476
    17  N    1.828433   2.774211   3.514274   2.694268   2.134089
    18  C    3.292965   3.878179   3.216493   3.002957   4.026154
    19  C    2.671818   3.260711   4.706245   3.953120   2.577872
    20  O    3.683832   4.444860   5.793825   4.888226   3.347718
    21  O    4.160014   4.394674   3.390724   3.674901   5.031702
    22  O    2.775935   2.708806   4.692904   4.229581   2.795650
    23  O    3.553019   4.589620   3.727320   3.037966   4.029902
    24  C    4.749571   5.730313   4.349992   3.856305   5.254762
    25  H    5.176420   6.365142   5.103221   4.340290   5.479488
    26  H    5.524738   6.340837   4.985361   4.718332   6.099842
    27  H    4.694597   5.559407   3.810241   3.514135   5.301220
    28  C    4.095250   3.909511   6.069119   5.606357   3.891971
    29  H    4.861278   4.632326   6.684443   6.306536   4.757560
    30  H    4.359222   4.487971   6.584595   5.892216   3.877332
    31  H    4.304083   3.758155   6.067736   5.791655   4.193659
    32  O    5.306482   5.996758   7.705744   6.673140   4.570286
    33  H    4.737382   5.644640   7.155072   6.006536   3.930009
    34  H    5.435239   6.064119   7.722615   6.774459   4.849525
    35  O    4.422619   3.193961   5.403970   5.610519   4.662248
    36  H    4.982984   3.791711   5.925428   6.123672   5.131309
    37  H    5.000089   3.631596   5.689266   6.093897   5.375382
    38  O    4.017219   5.521290   5.297330   3.983350   3.783234
    39  H    4.290587   5.653587   5.395999   4.264328   4.230080
    40  H    3.101664   4.624573   4.391708   3.038182   2.945461
    41  O    6.528467   6.815179   5.374531   5.747357   7.354420
    42  H    5.912495   6.122566   4.525682   5.032109   6.799619
    43  H    6.255698   6.502857   5.374032   5.692618   7.060705
                    6          7          8          9         10
     6  H    0.000000
     7  C    3.465281   0.000000
     8  H    4.411670   1.103814   0.000000
     9  H    3.810364   1.104887   1.768179   0.000000
    10  C    3.205128   2.438491   2.921001   3.390221   0.000000
    11  H    3.991271   3.440858   3.773775   4.389778   1.075010
    12  C    2.370916   2.491060   2.998514   3.435803   1.522146
    13  H    2.908746   3.436210   3.749621   4.404080   2.298971
    14  H    4.473759   2.285386   2.691064   2.685644   2.269568
    15  H    2.757706   2.268288   2.671683   2.686663   3.443605
    16  N    3.364778   3.087580   4.096221   2.480369   4.179024
    17  N    2.983123   3.288774   4.348257   3.083723   3.539101
    18  C    2.965658   3.344295   4.318805   2.733334   4.668732
    19  C    4.342149   4.137428   5.056925   3.917914   4.131495
    20  O    5.089301   5.322890   6.259305   5.047941   5.197185
    21  O    3.713691   3.453468   4.217493   2.679396   5.255129
    22  O    4.892114   3.800923   4.510388   3.725604   3.712293
    23  O    2.523895   4.275641   5.306453   3.910608   5.041266
    24  C    3.129454   5.172970   6.097148   4.834717   6.030318
    25  H    3.440643   6.002071   6.973783   5.742764   6.524109
    26  H    4.116927   5.631168   6.489796   5.107792   6.818408
    27  H    2.801180   4.859550   5.686773   4.680880   5.700110
    28  C    6.266475   5.089048   5.644560   5.033907   4.778346
    29  H    6.925175   5.606817   6.140835   5.350051   5.672106
    30  H    6.445238   5.794556   6.426357   5.825365   5.098462
    31  H    6.585305   4.977634   5.340417   5.066068   4.568276
    32  O    6.899027   7.223674   8.048256   7.166453   6.431140
    33  H    6.135883   6.844044   7.738096   6.830732   5.960879
    34  H    6.992067   7.156610   7.992351   6.953076   6.692789
    35  O    6.610303   4.189156   4.105097   4.564131   3.874570
    36  H    7.132707   4.824356   4.642980   5.333399   4.169156
    37  H    7.110290   4.329232   4.085800   4.565768   4.492260
    38  O    3.291089   5.861982   6.959981   5.740108   5.633313
    39  H    3.636995   5.835577   6.932040   5.534871   5.988328
    40  H    2.412229   4.983129   6.073619   4.959055   4.687874
    41  O    5.497022   5.696422   6.257848   4.960884   7.543376
    42  H    4.856198   4.927610   5.447420   4.289636   6.780315
    43  H    5.527883   5.471440   6.074987   4.611407   7.378423
                   11         12         13         14         15
    11  H    0.000000
    12  C    2.307940   0.000000
    13  H    2.738114   1.072816   0.000000
    14  H    2.737388   3.464109   4.420417   0.000000
    15  H    4.439446   2.317582   2.778254   4.390667   0.000000
    16  N    5.059811   4.329733   5.345218   3.472545   4.015633
    17  N    4.256704   3.918748   4.913203   3.086474   4.304055
    18  C    5.654434   4.331562   5.215297   4.474701   3.411029
    19  C    4.596545   4.932412   5.932241   3.068304   5.591720
    20  O    5.563261   5.967417   6.921956   4.221493   6.640540
    21  O    6.303358   4.769787   5.592019   4.990760   3.266743
    22  O    4.051524   4.820732   5.824342   2.108552   5.663348
    23  O    5.940104   4.532298   5.268105   5.290815   3.877605
    24  C    6.949297   5.206803   5.741861   6.536340   4.148160
    25  H    7.349605   5.722751   6.178680   7.164521   4.983826
    26  H    7.786328   6.035092   6.614707   7.071668   4.679658
    27  H    6.632500   4.657517   5.056797   6.478025   3.419074
    28  C    4.857503   6.059755   7.007226   3.068494   7.061829
    29  H    5.853953   6.872535   7.865934   3.771434   7.609928
    30  H    5.028094   6.384780   7.266145   3.781502   7.608618
    31  H    4.527723   5.967129   6.863081   2.762675   7.076650
    32  O    6.385659   7.477784   8.302584   5.561950   8.668121
    33  H    5.954772   6.883371   7.671618   5.379607   8.093210
    34  H    6.783452   7.687229   8.581922   5.599571   8.637940
    35  O    3.794829   5.254543   6.021492   2.217306   6.340201
    36  H    3.863797   5.575588   6.214958   2.944202   6.860614
    37  H    4.549162   5.750277   6.537007   2.663854   6.535247
    38  O    6.194507   5.431460   6.047537   6.078161   5.740117
    39  H    6.652516   5.784656   6.486295   6.160260   5.765836
    40  H    5.281405   4.478777   5.124798   5.248543   4.902157
    41  O    8.604016   6.769590   7.379262   7.452285   4.822559
    42  H    7.846385   5.938584   6.514309   6.827062   3.903578
    43  H    8.431042   6.787606   7.510638   7.026098   4.989238
                   16         17         18         19         20
    16  N    0.000000
    17  N    1.288706   0.000000
    18  C    1.428887   2.349474   0.000000
    19  C    2.296887   1.480982   3.634561   0.000000
    20  O    3.097523   2.352533   4.321988   1.208277   0.000000
    21  O    2.333689   3.431491   1.212660   4.628741   5.373101
    22  O    2.991552   2.346423   4.365266   1.353690   2.286537
    23  O    2.336947   2.692285   1.377796   4.039597   4.493938
    24  C    3.686566   4.132102   2.425630   5.496539   5.911505
    25  H    4.332192   4.542022   3.265512   5.823743   6.064780
    26  H    3.993532   4.699269   2.666585   5.979378   6.355431
    27  H    4.082793   4.484511   2.782261   5.937816   6.511896
    28  C    4.352914   3.713402   5.761831   2.416489   2.777940
    29  H    4.537933   4.140908   5.964569   2.784465   2.927918
    30  H    4.875710   4.017487   6.249524   2.664517   2.673579
    31  H    4.915697   4.320447   6.275067   3.239938   3.803904
    32  O    5.524234   4.574194   6.750041   3.316648   2.497618
    33  H    5.084743   4.038091   6.203881   2.996152   2.187391
    34  H    5.183644   4.412705   6.429568   3.090522   2.113985
    35  O    5.488598   5.090284   6.602236   4.576340   5.503252
    36  H    6.333304   5.847300   7.408759   5.345145   6.232464
    37  H    5.711121   5.517101   6.790620   5.032357   5.973007
    38  O    3.712516   3.178784   3.616860   3.998695   3.901379
    39  H    3.336575   3.109498   3.153490   3.937033   3.811677
    40  H    3.158752   2.512212   3.114755   3.524228   3.699427
    41  O    4.696590   5.777556   3.434296   6.963581   7.526396
    42  H    4.370197   5.396208   3.075903   6.659966   7.347225
    43  H    4.138136   5.303802   3.043154   6.363325   6.882731
                   21         22         23         24         25
    21  O    0.000000
    22  O    5.175843   0.000000
    23  O    2.278934   5.007910   0.000000
    24  C    2.730121   6.441087   1.457116   0.000000
    25  H    3.763823   6.887291   2.005408   1.096959   0.000000
    26  H    2.605265   6.921027   2.107562   1.098276   1.817670
    27  H    2.876607   6.723856   2.084866   1.093453   1.813963
    28  C    6.553689   1.461068   6.375956   7.825142   8.211605
    29  H    6.676867   2.088357   6.667056   8.108902   8.524979
    30  H    7.168394   2.112157   6.653033   8.101921   8.350649
    31  H    6.965611   1.994823   6.982384   8.401199   8.858713
    32  O    7.830619   3.653586   6.774823   8.148950   8.126801
    33  H    7.340402   3.574627   6.083271   7.417117   7.330449
    34  H    7.459382   3.543572   6.538836   7.918170   7.944544
    35  O    7.034209   3.254069   7.470551   8.742553   9.362759
    36  H    7.851912   4.040286   8.215413   9.463300  10.054771
    37  H    7.079894   3.720376   7.789566   9.029095   9.728407
    38  O    4.727325   5.216392   2.523452   3.286702   2.823009
    39  H    4.206908   5.214251   2.117633   2.908979   2.558383
    40  H    4.256085   4.616514   2.161052   3.128430   2.920367
    41  O    2.495840   7.622096   3.783846   3.187418   4.107011
    42  H    2.055580   7.217346   3.523017   3.006066   4.034729
    43  H    2.132795   7.025348   3.594684   3.340764   4.260982
                   26         27         28         29         30
    26  H    0.000000
    27  H    1.808045   0.000000
    28  C    8.280159   8.157831   0.000000
    29  H    8.434701   8.534210   1.092767   0.000000
    30  H    8.637144   8.474018   1.099176   1.811220   0.000000
    31  H    8.880266   8.612018   1.102115   1.820887   1.827886
    32  O    8.695498   8.713234   3.126274   3.371064   2.209593
    33  H    8.028530   7.968545   3.422957   3.822792   2.578550
    34  H    8.355458   8.557025   3.056334   3.008153   2.399814
    35  O    9.238124   8.686922   3.207161   3.825417   3.934586
    36  H   10.013755   9.349189   3.869114   4.553141   4.431027
    37  H    9.428604   8.971494   3.673703   4.060618   4.541142
    38  O    4.062711   3.944992   6.295979   6.695013   6.143619
    39  H    3.477481   3.762794   6.316816   6.573016   6.277076
    40  H    4.015150   3.589493   5.797834   6.292604   5.723250
    41  O    2.324064   3.299391   8.961446   8.975799   9.560905
    42  H    2.433268   2.849058   8.601910   8.710255   9.217952
    43  H    2.486915   3.663432   8.305504   8.236271   8.929606
                   31         32         33         34         35
    31  H    0.000000
    32  O    4.030328   0.000000
    33  H    4.326131   0.961400   0.000000
    34  H    4.082534   0.964504   1.527900   0.000000
    35  O    2.232834   6.104634   6.225702   6.217586   0.000000
    36  H    2.826245   6.578370   6.710945   6.798812   0.956500
    37  H    2.742016   6.725952   6.896917   6.728118   0.957449
    38  O    7.076846   5.532816   4.668388   5.484617   8.065082
    39  H    7.145179   5.710803   4.934330   5.498505   8.170691
    40  H    6.478275   5.441055   4.588259   5.448822   7.282671
    41  O    9.415646  10.007641   9.484002   9.560456   9.448859
    42  H    8.972627   9.808068   9.267347   9.430923   8.837732
    43  H    8.799304   9.376387   8.914013   8.869989   8.963113
                   36         37         38         39         40
    36  H    0.000000
    37  H    1.533749   0.000000
    38  O    8.705107   8.607500   0.000000
    39  H    8.886420   8.623167   0.961020   0.000000
    40  H    7.902598   7.834248   0.960777   1.528641   0.000000
    41  O   10.263466   9.410480   6.143862   5.494300   5.935621
    42  H    9.612538   8.817254   5.994859   5.457712   5.647067
    43  H    9.818461   8.897740   5.918028   5.190635   5.728911
                   41         42         43
    41  O    0.000000
    42  H    0.963856   0.000000
    43  H    0.962609   1.527906   0.000000
 Stoichiometry    C11H22N2O8
 Framework group  C1[X(C11H22N2O8)]
 Deg. of freedom   123
 Full point group                 C1      NOp   1
 Largest Abelian subgroup         C1      NOp   1
 Largest concise Abelian subgroup C1      NOp   1
                         Standard orientation:                         
 ---------------------------------------------------------------------
 Center     Atomic      Atomic             Coordinates (Angstroms)
 Number     Number       Type             X           Y           Z
 ---------------------------------------------------------------------
      1          6           0        0.536179   -0.691243    1.077193
      2          6           0        1.005029   -1.904111    0.124764
      3          6           0       -1.228853   -2.372397    0.684892
      4          6           0       -0.853669   -1.162955    1.559685
      5          1           0        1.167739   -0.078457    1.725326
      6          1           0       -1.542490   -0.501499    2.053691
      7          6           0       -0.278487   -2.454232   -0.514831
      8          1           0       -0.140590   -3.488643   -0.874530
      9          1           0       -0.625089   -1.866128   -1.383610
     10          6           0        1.037993   -2.330126    1.534002
     11          1           0        1.901137   -2.517186    2.146894
     12          6           0       -0.399260   -2.576905    1.970274
     13          1           0       -0.671075   -3.167745    2.823479
     14          1           0        1.906425   -1.784484   -0.490607
     15          1           0       -2.247227   -2.722839    0.579264
     16          7           0       -0.586575    0.581724   -0.985155
     17          7           0        0.222522    0.754662    0.002882
     18          6           0       -1.982967    0.414878   -0.732231
     19          6           0        1.539940    1.261517   -0.445241
     20          8           0        1.822280    2.434898   -0.386981
     21          8           0       -2.731100   -0.211100   -1.452643
     22          8           0        2.379033    0.250972   -0.772654
     23          8           0       -2.418372    1.144344    0.352492
     24          6           0       -3.840923    1.105986    0.665643
     25          1           0       -3.938278    1.887659    1.429075
     26          1           0       -4.435102    1.334059   -0.229424
     27          1           0       -4.088209    0.117493    1.062342
     28          6           0        3.764891    0.580582   -1.097422
     29          1           0        3.791669    1.073412   -2.072379
     30          1           0        4.200826    1.216218   -0.313767
     31          1           0        4.223683   -0.421089   -1.126092
     32          8           0        4.012454    3.272282    0.473264
     33          1           0        3.268960    3.178472    1.075515
     34          1           0        3.621522    3.544490   -0.365391
     35          8           0        3.866420   -2.624972   -1.097605
     36          1           0        4.487202   -3.193263   -0.643109
     37          1           0        3.761106   -2.985996   -1.978104
     38          8           0       -1.304875    2.778291    1.920342
     39          1           0       -1.661856    2.993491    1.054425
     40          1           0       -1.051427    1.852976    1.868885
     41          8           0       -5.130553    0.094176   -2.067986
     42          1           0       -4.733242   -0.651446   -1.604078
     43          1           0       -4.408851    0.488696   -2.568103
 ---------------------------------------------------------------------
 Rotational constants (GHZ):      0.3484575      0.2079026      0.1660147
 Standard basis: VSTO-6G (5D, 7F)
 There are   106 symmetry adapted cartesian basis functions of A   symmetry.
 There are   106 symmetry adapted basis functions of A   symmetry.
   106 basis functions,   636 primitive gaussians,   106 cartesian basis functions
    62 alpha electrons       62 beta electrons
       nuclear repulsion energy      1148.9945695264 Hartrees.
 Integral buffers will be    131072 words long.
 Regular integral format.
 Two-electron integral symmetry is turned off.
 Nuclear repulsion after empirical dispersion term =     1148.9770468723 Hartrees.
 Force inversion solution in PCM.
 ------------------------------------------------------------------------------
 Polarizable Continuum Model (PCM)
 =================================
 Model                : C-PCM.
 Atomic radii         : UFF (Universal Force Field).
 Polarization charges : Total charges.
 Charge compensation  : None.
 Solution method      : Matrix inversion.
 Cavity type          : Scaled VdW (van der Waals Surface) (Alpha=1.100).
 Cavity algorithm     : GePol (No added spheres)
                        Default sphere list used, NSphG=   43.
                        Lebedev-Laikov grids with approx.  5.0 points / Ang**2.
                        Smoothing algorithm: Karplus/York (Gamma=1.0000).
                        Polarization charges: spherical gaussians, with
                                              point-specific exponents (IZeta= 3).
                        Self-potential: point-specific (ISelfS= 7).
                        Self-field    : sphere-specific E.n sum rule (ISelfD= 2).
 1st derivatives      : Analytical E(r).r(x)/FMM algorithm (CHGder, D1EAlg=3).
                        Cavity 1st derivative terms included.
 2nd derivatives      : Analytical E(r).r(xy)/FMM algorithm (CHGder, D2EAlg=3).
                        Cavity 2nd derivative terms included.
 Solvent              : Toluene, Eps=   2.374100 Eps(inf)=   2.238315
 ------------------------------------------------------------------------------
 Do NDO integrals.
 One-electron integrals computed using PRISM.
 NBasis=   106 RedAO= F EigKep=  0.00D+00  NBF=   106
 NBsUse=   106 1.00D-04 EigRej=  0.00D+00 NBFU=   106
 Simple Huckel Guess.
 Overlap will be assumed to be unity.
 Keep J ints in memory in canonical form, NReq=13771792.
 Requested convergence on RMS density matrix=1.00D-08 within 128 cycles.
 Requested convergence on MAX density matrix=1.00D-06.
 Requested convergence on             energy=1.00D-06.
 No special actions if energy rises.
 Inv3:  Mode=2 IEnd=    19182818.
 Iteration    1 A*A^-1 deviation from unit magnitude is 8.44D-15 for   3087.
 Iteration    1 A*A^-1 deviation from orthogonality  is 2.86D-15 for   3086    320.
 Iteration    1 A^-1*A deviation from unit magnitude is 8.44D-15 for   3087.
 Iteration    1 A^-1*A deviation from orthogonality  is 2.15D-15 for   3065    426.
 Error on total polarization charges = -0.00023
 SCF Done:  E(RPM6D3) = -0.411127858509     A.U. after   19 cycles
            NFock= 18  Conv=0.59D-08     -V/T= 0.9949
 Range of M.O.s used for correlation:     1   106
 NBasis=   106 NAE=    62 NBE=    62 NFC=     0 NFV=     0
 NROrb=    106 NOA=    62 NOB=    62 NVA=    44 NVB=    44
 Symmetrizing basis deriv contribution to polar:
 IMax=3 JMax=2 DiffMx= 0.00D+00
 G2DrvN: will do    44 centers at a time, making    1 passes.
 Calling FoFCou, ICntrl=  3107 FMM=F I1Cent=   0 AccDes= 0.00D+00.
 NEqPCM:  Using equilibrium solvation (IEInf=0, Eps=   2.3741, EpsInf=   2.2383)
 G2PCM: DoFxE=T DoFxN=T DoGrad=T DoDP/DQ/DG/TGxP=FFFF NFrqRd=   0 IEInf=0 SqF1=F DoCFld=F IF1Alg=4.
 CoulSu:  requested number of processors reduced to:   3 ShMem   1 Linda.
 End of G2Drv F.D. properties file   721 does not exist.
 End of G2Drv F.D. properties file   722 does not exist.
 End of G2Drv F.D. properties file   788 does not exist.
          IDoAtm=1111111111111111111111111111111111111111111
 NEqPCM:  Using equilibrium solvation (IEInf=0, Eps=   2.3741, EpsInf=   2.2383)
          Differentiating once with respect to electric field.
                with respect to dipole field.
          Differentiating once with respect to nuclear coordinates.
          Electric field/nuclear overlap derivatives assumed to be zero.
 Keep J ints in memory in canonical form, NReq=22353467.
          There are   132 degrees of freedom in the 1st order CPHF.  IDoFFX=5 NUNeed=   132.
 LinEq1:  Iter=  0 NonCon=   132 RMS=1.71D-01 Max=5.86D+00 NDo=   132
 AX will form   132 AO Fock derivatives at one time.
 LinEq1:  Iter=  1 NonCon=   132 RMS=3.84D-02 Max=6.89D-01 NDo=   132
 LinEq1:  Iter=  2 NonCon=   132 RMS=1.12D-02 Max=3.07D-01 NDo=   132
 LinEq1:  Iter=  3 NonCon=   132 RMS=2.07D-03 Max=2.15D-02 NDo=   132
 LinEq1:  Iter=  4 NonCon=   132 RMS=4.97D-04 Max=8.96D-03 NDo=   132
 LinEq1:  Iter=  5 NonCon=   132 RMS=1.05D-04 Max=1.72D-03 NDo=   132
 LinEq1:  Iter=  6 NonCon=   132 RMS=2.36D-05 Max=3.15D-04 NDo=   132
 LinEq1:  Iter=  7 NonCon=   112 RMS=4.74D-06 Max=7.22D-05 NDo=   132
 LinEq1:  Iter=  8 NonCon=    44 RMS=8.80D-07 Max=1.50D-05 NDo=   132
 LinEq1:  Iter=  9 NonCon=     4 RMS=1.34D-07 Max=2.79D-06 NDo=   132
 LinEq1:  Iter= 10 NonCon=     3 RMS=2.14D-08 Max=1.90D-07 NDo=   132
 LinEq1:  Iter= 11 NonCon=     0 RMS=3.66D-09 Max=3.97D-08 NDo=   132
 Linear equations converged to 1.000D-08 1.000D-07 after    11 iterations.
 Isotropic polarizability for W=    0.000000      196.68 Bohr**3.
 End of Minotr F.D. properties file   721 does not exist.
 End of Minotr F.D. properties file   722 does not exist.
 End of Minotr F.D. properties file   788 does not exist.

 **********************************************************************

            Population analysis using the SCF density.

 **********************************************************************

 Orbital symmetries:
       Occupied  (A) (A) (A) (A) (A) (A) (A) (A) (A) (A) (A) (A)
                 (A) (A) (A) (A) (A) (A) (A) (A) (A) (A) (A) (A)
                 (A) (A) (A) (A) (A) (A) (A) (A) (A) (A) (A) (A)
                 (A) (A) (A) (A) (A) (A) (A) (A) (A) (A) (A) (A)
                 (A) (A) (A) (A) (A) (A) (A) (A) (A) (A) (A) (A)
                 (A) (A)
       Virtual   (A) (A) (A) (A) (A) (A) (A) (A) (A) (A) (A) (A)
                 (A) (A) (A) (A) (A) (A) (A) (A) (A) (A) (A) (A)
                 (A) (A) (A) (A) (A) (A) (A) (A) (A) (A) (A) (A)
                 (A) (A) (A) (A) (A) (A) (A) (A)
 The electronic state is 1-A.
 Alpha  occ. eigenvalues --   -1.27210  -1.23976  -1.20811  -1.19356  -1.15853
 Alpha  occ. eigenvalues --   -1.13468  -1.12569  -1.10066  -1.09558  -1.09437
 Alpha  occ. eigenvalues --   -1.03756  -0.99512  -0.95971  -0.95593  -0.91675
 Alpha  occ. eigenvalues --   -0.86970  -0.82069  -0.76155  -0.75827  -0.73739
 Alpha  occ. eigenvalues --   -0.72059  -0.70686  -0.70414  -0.69027  -0.67888
 Alpha  occ. eigenvalues --   -0.67430  -0.67347  -0.64988  -0.64365  -0.63641
 Alpha  occ. eigenvalues --   -0.62129  -0.61041  -0.59001  -0.57022  -0.56643
 Alpha  occ. eigenvalues --   -0.56180  -0.54496  -0.54444  -0.53791  -0.53330
 Alpha  occ. eigenvalues --   -0.52546  -0.51915  -0.51626  -0.51450  -0.51349
 Alpha  occ. eigenvalues --   -0.49943  -0.49224  -0.48942  -0.48250  -0.45908
 Alpha  occ. eigenvalues --   -0.45475  -0.45326  -0.44887  -0.44225  -0.43786
 Alpha  occ. eigenvalues --   -0.43671  -0.42911  -0.42622  -0.42437  -0.42251
 Alpha  occ. eigenvalues --   -0.38513  -0.32863
 Alpha virt. eigenvalues --   -0.07515  -0.00933  -0.00322   0.01014   0.02876
 Alpha virt. eigenvalues --    0.04093   0.06041   0.07030   0.07456   0.08713
 Alpha virt. eigenvalues --    0.09585   0.09990   0.10146   0.10554   0.11386
 Alpha virt. eigenvalues --    0.11738   0.12513   0.13340   0.13963   0.14181
 Alpha virt. eigenvalues --    0.14275   0.14710   0.16333   0.16586   0.16906
 Alpha virt. eigenvalues --    0.17580   0.18075   0.18552   0.18583   0.18862
 Alpha virt. eigenvalues --    0.19028   0.19089   0.19178   0.19491   0.19995
 Alpha virt. eigenvalues --    0.20143   0.20195   0.20350   0.20494   0.20774
 Alpha virt. eigenvalues --    0.21314   0.22896   0.23413   0.23511
          Condensed to atoms (all electrons):
               1          2          3          4          5          6
     1  C    4.239252   0.000000   0.000000   0.000000   0.000000   0.000000
     2  C    0.000000   4.037375   0.000000   0.000000   0.000000   0.000000
     3  C    0.000000   0.000000   4.110149   0.000000   0.000000   0.000000
     4  C    0.000000   0.000000   0.000000   4.157383   0.000000   0.000000
     5  H    0.000000   0.000000   0.000000   0.000000   0.810038   0.000000
     6  H    0.000000   0.000000   0.000000   0.000000   0.000000   0.821730
     7  C    0.000000   0.000000   0.000000   0.000000   0.000000   0.000000
     8  H    0.000000   0.000000   0.000000   0.000000   0.000000   0.000000
     9  H    0.000000   0.000000   0.000000   0.000000   0.000000   0.000000
    10  C    0.000000   0.000000   0.000000   0.000000   0.000000   0.000000
    11  H    0.000000   0.000000   0.000000   0.000000   0.000000   0.000000
    12  C    0.000000   0.000000   0.000000   0.000000   0.000000   0.000000
    13  H    0.000000   0.000000   0.000000   0.000000   0.000000   0.000000
    14  H    0.000000   0.000000   0.000000   0.000000   0.000000   0.000000
    15  H    0.000000   0.000000   0.000000   0.000000   0.000000   0.000000
    16  N    0.000000   0.000000   0.000000   0.000000   0.000000   0.000000
    17  N    0.000000   0.000000   0.000000   0.000000   0.000000   0.000000
    18  C    0.000000   0.000000   0.000000   0.000000   0.000000   0.000000
    19  C    0.000000   0.000000   0.000000   0.000000   0.000000   0.000000
    20  O    0.000000   0.000000   0.000000   0.000000   0.000000   0.000000
    21  O    0.000000   0.000000   0.000000   0.000000   0.000000   0.000000
    22  O    0.000000   0.000000   0.000000   0.000000   0.000000   0.000000
    23  O    0.000000   0.000000   0.000000   0.000000   0.000000   0.000000
    24  C    0.000000   0.000000   0.000000   0.000000   0.000000   0.000000
    25  H    0.000000   0.000000   0.000000   0.000000   0.000000   0.000000
    26  H    0.000000   0.000000   0.000000   0.000000   0.000000   0.000000
    27  H    0.000000   0.000000   0.000000   0.000000   0.000000   0.000000
    28  C    0.000000   0.000000   0.000000   0.000000   0.000000   0.000000
    29  H    0.000000   0.000000   0.000000   0.000000   0.000000   0.000000
    30  H    0.000000   0.000000   0.000000   0.000000   0.000000   0.000000
    31  H    0.000000   0.000000   0.000000   0.000000   0.000000   0.000000
    32  O    0.000000   0.000000   0.000000   0.000000   0.000000   0.000000
    33  H    0.000000   0.000000   0.000000   0.000000   0.000000   0.000000
    34  H    0.000000   0.000000   0.000000   0.000000   0.000000   0.000000
    35  O    0.000000   0.000000   0.000000   0.000000   0.000000   0.000000
    36  H    0.000000   0.000000   0.000000   0.000000   0.000000   0.000000
    37  H    0.000000   0.000000   0.000000   0.000000   0.000000   0.000000
    38  O    0.000000   0.000000   0.000000   0.000000   0.000000   0.000000
    39  H    0.000000   0.000000   0.000000   0.000000   0.000000   0.000000
    40  H    0.000000   0.000000   0.000000   0.000000   0.000000   0.000000
    41  O    0.000000   0.000000   0.000000   0.000000   0.000000   0.000000
    42  H    0.000000   0.000000   0.000000   0.000000   0.000000   0.000000
    43  H    0.000000   0.000000   0.000000   0.000000   0.000000   0.000000
               7          8          9         10         11         12
     1  C    0.000000   0.000000   0.000000   0.000000   0.000000   0.000000
     2  C    0.000000   0.000000   0.000000   0.000000   0.000000   0.000000
     3  C    0.000000   0.000000   0.000000   0.000000   0.000000   0.000000
     4  C    0.000000   0.000000   0.000000   0.000000   0.000000   0.000000
     5  H    0.000000   0.000000   0.000000   0.000000   0.000000   0.000000
     6  H    0.000000   0.000000   0.000000   0.000000   0.000000   0.000000
     7  C    4.281738   0.000000   0.000000   0.000000   0.000000   0.000000
     8  H    0.000000   0.833896   0.000000   0.000000   0.000000   0.000000
     9  H    0.000000   0.000000   0.817448   0.000000   0.000000   0.000000
    10  C    0.000000   0.000000   0.000000   4.024324   0.000000   0.000000
    11  H    0.000000   0.000000   0.000000   0.000000   0.827393   0.000000
    12  C    0.000000   0.000000   0.000000   0.000000   0.000000   4.218296
    13  H    0.000000   0.000000   0.000000   0.000000   0.000000   0.000000
    14  H    0.000000   0.000000   0.000000   0.000000   0.000000   0.000000
    15  H    0.000000   0.000000   0.000000   0.000000   0.000000   0.000000
    16  N    0.000000   0.000000   0.000000   0.000000   0.000000   0.000000
    17  N    0.000000   0.000000   0.000000   0.000000   0.000000   0.000000
    18  C    0.000000   0.000000   0.000000   0.000000   0.000000   0.000000
    19  C    0.000000   0.000000   0.000000   0.000000   0.000000   0.000000
    20  O    0.000000   0.000000   0.000000   0.000000   0.000000   0.000000
    21  O    0.000000   0.000000   0.000000   0.000000   0.000000   0.000000
    22  O    0.000000   0.000000   0.000000   0.000000   0.000000   0.000000
    23  O    0.000000   0.000000   0.000000   0.000000   0.000000   0.000000
    24  C    0.000000   0.000000   0.000000   0.000000   0.000000   0.000000
    25  H    0.000000   0.000000   0.000000   0.000000   0.000000   0.000000
    26  H    0.000000   0.000000   0.000000   0.000000   0.000000   0.000000
    27  H    0.000000   0.000000   0.000000   0.000000   0.000000   0.000000
    28  C    0.000000   0.000000   0.000000   0.000000   0.000000   0.000000
    29  H    0.000000   0.000000   0.000000   0.000000   0.000000   0.000000
    30  H    0.000000   0.000000   0.000000   0.000000   0.000000   0.000000
    31  H    0.000000   0.000000   0.000000   0.000000   0.000000   0.000000
    32  O    0.000000   0.000000   0.000000   0.000000   0.000000   0.000000
    33  H    0.000000   0.000000   0.000000   0.000000   0.000000   0.000000
    34  H    0.000000   0.000000   0.000000   0.000000   0.000000   0.000000
    35  O    0.000000   0.000000   0.000000   0.000000   0.000000   0.000000
    36  H    0.000000   0.000000   0.000000   0.000000   0.000000   0.000000
    37  H    0.000000   0.000000   0.000000   0.000000   0.000000   0.000000
    38  O    0.000000   0.000000   0.000000   0.000000   0.000000   0.000000
    39  H    0.000000   0.000000   0.000000   0.000000   0.000000   0.000000
    40  H    0.000000   0.000000   0.000000   0.000000   0.000000   0.000000
    41  O    0.000000   0.000000   0.000000   0.000000   0.000000   0.000000
    42  H    0.000000   0.000000   0.000000   0.000000   0.000000   0.000000
    43  H    0.000000   0.000000   0.000000   0.000000   0.000000   0.000000
              13         14         15         16         17         18
     1  C    0.000000   0.000000   0.000000   0.000000   0.000000   0.000000
     2  C    0.000000   0.000000   0.000000   0.000000   0.000000   0.000000
     3  C    0.000000   0.000000   0.000000   0.000000   0.000000   0.000000
     4  C    0.000000   0.000000   0.000000   0.000000   0.000000   0.000000
     5  H    0.000000   0.000000   0.000000   0.000000   0.000000   0.000000
     6  H    0.000000   0.000000   0.000000   0.000000   0.000000   0.000000
     7  C    0.000000   0.000000   0.000000   0.000000   0.000000   0.000000
     8  H    0.000000   0.000000   0.000000   0.000000   0.000000   0.000000
     9  H    0.000000   0.000000   0.000000   0.000000   0.000000   0.000000
    10  C    0.000000   0.000000   0.000000   0.000000   0.000000   0.000000
    11  H    0.000000   0.000000   0.000000   0.000000   0.000000   0.000000
    12  C    0.000000   0.000000   0.000000   0.000000   0.000000   0.000000
    13  H    0.818169   0.000000   0.000000   0.000000   0.000000   0.000000
    14  H    0.000000   0.794391   0.000000   0.000000   0.000000   0.000000
    15  H    0.000000   0.000000   0.832403   0.000000   0.000000   0.000000
    16  N    0.000000   0.000000   0.000000   5.401575   0.000000   0.000000
    17  N    0.000000   0.000000   0.000000   0.000000   5.049616   0.000000
    18  C    0.000000   0.000000   0.000000   0.000000   0.000000   3.272993
    19  C    0.000000   0.000000   0.000000   0.000000   0.000000   0.000000
    20  O    0.000000   0.000000   0.000000   0.000000   0.000000   0.000000
    21  O    0.000000   0.000000   0.000000   0.000000   0.000000   0.000000
    22  O    0.000000   0.000000   0.000000   0.000000   0.000000   0.000000
    23  O    0.000000   0.000000   0.000000   0.000000   0.000000   0.000000
    24  C    0.000000   0.000000   0.000000   0.000000   0.000000   0.000000
    25  H    0.000000   0.000000   0.000000   0.000000   0.000000   0.000000
    26  H    0.000000   0.000000   0.000000   0.000000   0.000000   0.000000
    27  H    0.000000   0.000000   0.000000   0.000000   0.000000   0.000000
    28  C    0.000000   0.000000   0.000000   0.000000   0.000000   0.000000
    29  H    0.000000   0.000000   0.000000   0.000000   0.000000   0.000000
    30  H    0.000000   0.000000   0.000000   0.000000   0.000000   0.000000
    31  H    0.000000   0.000000   0.000000   0.000000   0.000000   0.000000
    32  O    0.000000   0.000000   0.000000   0.000000   0.000000   0.000000
    33  H    0.000000   0.000000   0.000000   0.000000   0.000000   0.000000
    34  H    0.000000   0.000000   0.000000   0.000000   0.000000   0.000000
    35  O    0.000000   0.000000   0.000000   0.000000   0.000000   0.000000
    36  H    0.000000   0.000000   0.000000   0.000000   0.000000   0.000000
    37  H    0.000000   0.000000   0.000000   0.000000   0.000000   0.000000
    38  O    0.000000   0.000000   0.000000   0.000000   0.000000   0.000000
    39  H    0.000000   0.000000   0.000000   0.000000   0.000000   0.000000
    40  H    0.000000   0.000000   0.000000   0.000000   0.000000   0.000000
    41  O    0.000000   0.000000   0.000000   0.000000   0.000000   0.000000
    42  H    0.000000   0.000000   0.000000   0.000000   0.000000   0.000000
    43  H    0.000000   0.000000   0.000000   0.000000   0.000000   0.000000
              19         20         21         22         23         24
     1  C    0.000000   0.000000   0.000000   0.000000   0.000000   0.000000
     2  C    0.000000   0.000000   0.000000   0.000000   0.000000   0.000000
     3  C    0.000000   0.000000   0.000000   0.000000   0.000000   0.000000
     4  C    0.000000   0.000000   0.000000   0.000000   0.000000   0.000000
     5  H    0.000000   0.000000   0.000000   0.000000   0.000000   0.000000
     6  H    0.000000   0.000000   0.000000   0.000000   0.000000   0.000000
     7  C    0.000000   0.000000   0.000000   0.000000   0.000000   0.000000
     8  H    0.000000   0.000000   0.000000   0.000000   0.000000   0.000000
     9  H    0.000000   0.000000   0.000000   0.000000   0.000000   0.000000
    10  C    0.000000   0.000000   0.000000   0.000000   0.000000   0.000000
    11  H    0.000000   0.000000   0.000000   0.000000   0.000000   0.000000
    12  C    0.000000   0.000000   0.000000   0.000000   0.000000   0.000000
    13  H    0.000000   0.000000   0.000000   0.000000   0.000000   0.000000
    14  H    0.000000   0.000000   0.000000   0.000000   0.000000   0.000000
    15  H    0.000000   0.000000   0.000000   0.000000   0.000000   0.000000
    16  N    0.000000   0.000000   0.000000   0.000000   0.000000   0.000000
    17  N    0.000000   0.000000   0.000000   0.000000   0.000000   0.000000
    18  C    0.000000   0.000000   0.000000   0.000000   0.000000   0.000000
    19  C    3.315161   0.000000   0.000000   0.000000   0.000000   0.000000
    20  O    0.000000   6.519240   0.000000   0.000000   0.000000   0.000000
    21  O    0.000000   0.000000   6.558139   0.000000   0.000000   0.000000
    22  O    0.000000   0.000000   0.000000   6.407216   0.000000   0.000000
    23  O    0.000000   0.000000   0.000000   0.000000   6.467644   0.000000
    24  C    0.000000   0.000000   0.000000   0.000000   0.000000   4.181217
    25  H    0.000000   0.000000   0.000000   0.000000   0.000000   0.000000
    26  H    0.000000   0.000000   0.000000   0.000000   0.000000   0.000000
    27  H    0.000000   0.000000   0.000000   0.000000   0.000000   0.000000
    28  C    0.000000   0.000000   0.000000   0.000000   0.000000   0.000000
    29  H    0.000000   0.000000   0.000000   0.000000   0.000000   0.000000
    30  H    0.000000   0.000000   0.000000   0.000000   0.000000   0.000000
    31  H    0.000000   0.000000   0.000000   0.000000   0.000000   0.000000
    32  O    0.000000   0.000000   0.000000   0.000000   0.000000   0.000000
    33  H    0.000000   0.000000   0.000000   0.000000   0.000000   0.000000
    34  H    0.000000   0.000000   0.000000   0.000000   0.000000   0.000000
    35  O    0.000000   0.000000   0.000000   0.000000   0.000000   0.000000
    36  H    0.000000   0.000000   0.000000   0.000000   0.000000   0.000000
    37  H    0.000000   0.000000   0.000000   0.000000   0.000000   0.000000
    38  O    0.000000   0.000000   0.000000   0.000000   0.000000   0.000000
    39  H    0.000000   0.000000   0.000000   0.000000   0.000000   0.000000
    40  H    0.000000   0.000000   0.000000   0.000000   0.000000   0.000000
    41  O    0.000000   0.000000   0.000000   0.000000   0.000000   0.000000
    42  H    0.000000   0.000000   0.000000   0.000000   0.000000   0.000000
    43  H    0.000000   0.000000   0.000000   0.000000   0.000000   0.000000
              25         26         27         28         29         30
     1  C    0.000000   0.000000   0.000000   0.000000   0.000000   0.000000
     2  C    0.000000   0.000000   0.000000   0.000000   0.000000   0.000000
     3  C    0.000000   0.000000   0.000000   0.000000   0.000000   0.000000
     4  C    0.000000   0.000000   0.000000   0.000000   0.000000   0.000000
     5  H    0.000000   0.000000   0.000000   0.000000   0.000000   0.000000
     6  H    0.000000   0.000000   0.000000   0.000000   0.000000   0.000000
     7  C    0.000000   0.000000   0.000000   0.000000   0.000000   0.000000
     8  H    0.000000   0.000000   0.000000   0.000000   0.000000   0.000000
     9  H    0.000000   0.000000   0.000000   0.000000   0.000000   0.000000
    10  C    0.000000   0.000000   0.000000   0.000000   0.000000   0.000000
    11  H    0.000000   0.000000   0.000000   0.000000   0.000000   0.000000
    12  C    0.000000   0.000000   0.000000   0.000000   0.000000   0.000000
    13  H    0.000000   0.000000   0.000000   0.000000   0.000000   0.000000
    14  H    0.000000   0.000000   0.000000   0.000000   0.000000   0.000000
    15  H    0.000000   0.000000   0.000000   0.000000   0.000000   0.000000
    16  N    0.000000   0.000000   0.000000   0.000000   0.000000   0.000000
    17  N    0.000000   0.000000   0.000000   0.000000   0.000000   0.000000
    18  C    0.000000   0.000000   0.000000   0.000000   0.000000   0.000000
    19  C    0.000000   0.000000   0.000000   0.000000   0.000000   0.000000
    20  O    0.000000   0.000000   0.000000   0.000000   0.000000   0.000000
    21  O    0.000000   0.000000   0.000000   0.000000   0.000000   0.000000
    22  O    0.000000   0.000000   0.000000   0.000000   0.000000   0.000000
    23  O    0.000000   0.000000   0.000000   0.000000   0.000000   0.000000
    24  C    0.000000   0.000000   0.000000   0.000000   0.000000   0.000000
    25  H    0.829770   0.000000   0.000000   0.000000   0.000000   0.000000
    26  H    0.000000   0.831676   0.000000   0.000000   0.000000   0.000000
    27  H    0.000000   0.000000   0.851147   0.000000   0.000000   0.000000
    28  C    0.000000   0.000000   0.000000   4.194492   0.000000   0.000000
    29  H    0.000000   0.000000   0.000000   0.000000   0.846329   0.000000
    30  H    0.000000   0.000000   0.000000   0.000000   0.000000   0.825825
    31  H    0.000000   0.000000   0.000000   0.000000   0.000000   0.000000
    32  O    0.000000   0.000000   0.000000   0.000000   0.000000   0.000000
    33  H    0.000000   0.000000   0.000000   0.000000   0.000000   0.000000
    34  H    0.000000   0.000000   0.000000   0.000000   0.000000   0.000000
    35  O    0.000000   0.000000   0.000000   0.000000   0.000000   0.000000
    36  H    0.000000   0.000000   0.000000   0.000000   0.000000   0.000000
    37  H    0.000000   0.000000   0.000000   0.000000   0.000000   0.000000
    38  O    0.000000   0.000000   0.000000   0.000000   0.000000   0.000000
    39  H    0.000000   0.000000   0.000000   0.000000   0.000000   0.000000
    40  H    0.000000   0.000000   0.000000   0.000000   0.000000   0.000000
    41  O    0.000000   0.000000   0.000000   0.000000   0.000000   0.000000
    42  H    0.000000   0.000000   0.000000   0.000000   0.000000   0.000000
    43  H    0.000000   0.000000   0.000000   0.000000   0.000000   0.000000
              31         32         33         34         35         36
     1  C    0.000000   0.000000   0.000000   0.000000   0.000000   0.000000
     2  C    0.000000   0.000000   0.000000   0.000000   0.000000   0.000000
     3  C    0.000000   0.000000   0.000000   0.000000   0.000000   0.000000
     4  C    0.000000   0.000000   0.000000   0.000000   0.000000   0.000000
     5  H    0.000000   0.000000   0.000000   0.000000   0.000000   0.000000
     6  H    0.000000   0.000000   0.000000   0.000000   0.000000   0.000000
     7  C    0.000000   0.000000   0.000000   0.000000   0.000000   0.000000
     8  H    0.000000   0.000000   0.000000   0.000000   0.000000   0.000000
     9  H    0.000000   0.000000   0.000000   0.000000   0.000000   0.000000
    10  C    0.000000   0.000000   0.000000   0.000000   0.000000   0.000000
    11  H    0.000000   0.000000   0.000000   0.000000   0.000000   0.000000
    12  C    0.000000   0.000000   0.000000   0.000000   0.000000   0.000000
    13  H    0.000000   0.000000   0.000000   0.000000   0.000000   0.000000
    14  H    0.000000   0.000000   0.000000   0.000000   0.000000   0.000000
    15  H    0.000000   0.000000   0.000000   0.000000   0.000000   0.000000
    16  N    0.000000   0.000000   0.000000   0.000000   0.000000   0.000000
    17  N    0.000000   0.000000   0.000000   0.000000   0.000000   0.000000
    18  C    0.000000   0.000000   0.000000   0.000000   0.000000   0.000000
    19  C    0.000000   0.000000   0.000000   0.000000   0.000000   0.000000
    20  O    0.000000   0.000000   0.000000   0.000000   0.000000   0.000000
    21  O    0.000000   0.000000   0.000000   0.000000   0.000000   0.000000
    22  O    0.000000   0.000000   0.000000   0.000000   0.000000   0.000000
    23  O    0.000000   0.000000   0.000000   0.000000   0.000000   0.000000
    24  C    0.000000   0.000000   0.000000   0.000000   0.000000   0.000000
    25  H    0.000000   0.000000   0.000000   0.000000   0.000000   0.000000
    26  H    0.000000   0.000000   0.000000   0.000000   0.000000   0.000000
    27  H    0.000000   0.000000   0.000000   0.000000   0.000000   0.000000
    28  C    0.000000   0.000000   0.000000   0.000000   0.000000   0.000000
    29  H    0.000000   0.000000   0.000000   0.000000   0.000000   0.000000
    30  H    0.000000   0.000000   0.000000   0.000000   0.000000   0.000000
    31  H    0.816397   0.000000   0.000000   0.000000   0.000000   0.000000
    32  O    0.000000   6.658813   0.000000   0.000000   0.000000   0.000000
    33  H    0.000000   0.000000   0.673687   0.000000   0.000000   0.000000
    34  H    0.000000   0.000000   0.000000   0.669022   0.000000   0.000000
    35  O    0.000000   0.000000   0.000000   0.000000   6.644827   0.000000
    36  H    0.000000   0.000000   0.000000   0.000000   0.000000   0.676671
    37  H    0.000000   0.000000   0.000000   0.000000   0.000000   0.000000
    38  O    0.000000   0.000000   0.000000   0.000000   0.000000   0.000000
    39  H    0.000000   0.000000   0.000000   0.000000   0.000000   0.000000
    40  H    0.000000   0.000000   0.000000   0.000000   0.000000   0.000000
    41  O    0.000000   0.000000   0.000000   0.000000   0.000000   0.000000
    42  H    0.000000   0.000000   0.000000   0.000000   0.000000   0.000000
    43  H    0.000000   0.000000   0.000000   0.000000   0.000000   0.000000
              37         38         39         40         41         42
     1  C    0.000000   0.000000   0.000000   0.000000   0.000000   0.000000
     2  C    0.000000   0.000000   0.000000   0.000000   0.000000   0.000000
     3  C    0.000000   0.000000   0.000000   0.000000   0.000000   0.000000
     4  C    0.000000   0.000000   0.000000   0.000000   0.000000   0.000000
     5  H    0.000000   0.000000   0.000000   0.000000   0.000000   0.000000
     6  H    0.000000   0.000000   0.000000   0.000000   0.000000   0.000000
     7  C    0.000000   0.000000   0.000000   0.000000   0.000000   0.000000
     8  H    0.000000   0.000000   0.000000   0.000000   0.000000   0.000000
     9  H    0.000000   0.000000   0.000000   0.000000   0.000000   0.000000
    10  C    0.000000   0.000000   0.000000   0.000000   0.000000   0.000000
    11  H    0.000000   0.000000   0.000000   0.000000   0.000000   0.000000
    12  C    0.000000   0.000000   0.000000   0.000000   0.000000   0.000000
    13  H    0.000000   0.000000   0.000000   0.000000   0.000000   0.000000
    14  H    0.000000   0.000000   0.000000   0.000000   0.000000   0.000000
    15  H    0.000000   0.000000   0.000000   0.000000   0.000000   0.000000
    16  N    0.000000   0.000000   0.000000   0.000000   0.000000   0.000000
    17  N    0.000000   0.000000   0.000000   0.000000   0.000000   0.000000
    18  C    0.000000   0.000000   0.000000   0.000000   0.000000   0.000000
    19  C    0.000000   0.000000   0.000000   0.000000   0.000000   0.000000
    20  O    0.000000   0.000000   0.000000   0.000000   0.000000   0.000000
    21  O    0.000000   0.000000   0.000000   0.000000   0.000000   0.000000
    22  O    0.000000   0.000000   0.000000   0.000000   0.000000   0.000000
    23  O    0.000000   0.000000   0.000000   0.000000   0.000000   0.000000
    24  C    0.000000   0.000000   0.000000   0.000000   0.000000   0.000000
    25  H    0.000000   0.000000   0.000000   0.000000   0.000000   0.000000
    26  H    0.000000   0.000000   0.000000   0.000000   0.000000   0.000000
    27  H    0.000000   0.000000   0.000000   0.000000   0.000000   0.000000
    28  C    0.000000   0.000000   0.000000   0.000000   0.000000   0.000000
    29  H    0.000000   0.000000   0.000000   0.000000   0.000000   0.000000
    30  H    0.000000   0.000000   0.000000   0.000000   0.000000   0.000000
    31  H    0.000000   0.000000   0.000000   0.000000   0.000000   0.000000
    32  O    0.000000   0.000000   0.000000   0.000000   0.000000   0.000000
    33  H    0.000000   0.000000   0.000000   0.000000   0.000000   0.000000
    34  H    0.000000   0.000000   0.000000   0.000000   0.000000   0.000000
    35  O    0.000000   0.000000   0.000000   0.000000   0.000000   0.000000
    36  H    0.000000   0.000000   0.000000   0.000000   0.000000   0.000000
    37  H    0.675229   0.000000   0.000000   0.000000   0.000000   0.000000
    38  O    0.000000   6.661023   0.000000   0.000000   0.000000   0.000000
    39  H    0.000000   0.000000   0.671897   0.000000   0.000000   0.000000
    40  H    0.000000   0.000000   0.000000   0.672004   0.000000   0.000000
    41  O    0.000000   0.000000   0.000000   0.000000   6.662602   0.000000
    42  H    0.000000   0.000000   0.000000   0.000000   0.000000   0.670543
    43  H    0.000000   0.000000   0.000000   0.000000   0.000000   0.000000
              43
     1  C    0.000000
     2  C    0.000000
     3  C    0.000000
     4  C    0.000000
     5  H    0.000000
     6  H    0.000000
     7  C    0.000000
     8  H    0.000000
     9  H    0.000000
    10  C    0.000000
    11  H    0.000000
    12  C    0.000000
    13  H    0.000000
    14  H    0.000000
    15  H    0.000000
    16  N    0.000000
    17  N    0.000000
    18  C    0.000000
    19  C    0.000000
    20  O    0.000000
    21  O    0.000000
    22  O    0.000000
    23  O    0.000000
    24  C    0.000000
    25  H    0.000000
    26  H    0.000000
    27  H    0.000000
    28  C    0.000000
    29  H    0.000000
    30  H    0.000000
    31  H    0.000000
    32  O    0.000000
    33  H    0.000000
    34  H    0.000000
    35  O    0.000000
    36  H    0.000000
    37  H    0.000000
    38  O    0.000000
    39  H    0.000000
    40  H    0.000000
    41  O    0.000000
    42  H    0.000000
    43  H    0.671261
 Mulliken charges:
               1
     1  C   -0.239252
     2  C   -0.037375
     3  C   -0.110149
     4  C   -0.157383
     5  H    0.189962
     6  H    0.178270
     7  C   -0.281738
     8  H    0.166104
     9  H    0.182552
    10  C   -0.024324
    11  H    0.172607
    12  C   -0.218296
    13  H    0.181831
    14  H    0.205609
    15  H    0.167597
    16  N   -0.401575
    17  N   -0.049616
    18  C    0.727007
    19  C    0.684839
    20  O   -0.519240
    21  O   -0.558139
    22  O   -0.407216
    23  O   -0.467644
    24  C   -0.181217
    25  H    0.170230
    26  H    0.168324
    27  H    0.148853
    28  C   -0.194492
    29  H    0.153671
    30  H    0.174175
    31  H    0.183603
    32  O   -0.658813
    33  H    0.326313
    34  H    0.330978
    35  O   -0.644827
    36  H    0.323329
    37  H    0.324771
    38  O   -0.661023
    39  H    0.328103
    40  H    0.327996
    41  O   -0.662602
    42  H    0.329457
    43  H    0.328739
 Sum of Mulliken charges =   0.00000
 Mulliken charges with hydrogens summed into heavy atoms:
               1
     1  C   -0.049289
     2  C    0.168234
     3  C    0.057449
     4  C    0.020887
     7  C    0.066919
    10  C    0.148283
    12  C   -0.036466
    16  N   -0.401575
    17  N   -0.049616
    18  C    0.727007
    19  C    0.684839
    20  O   -0.519240
    21  O   -0.558139
    22  O   -0.407216
    23  O   -0.467644
    24  C    0.306191
    28  C    0.316957
    32  O   -0.001522
    35  O    0.003273
    38  O   -0.004925
    41  O   -0.004406
 APT charges:
               1
     1  C   -2.139142
     2  C    0.371247
     3  C   -0.103486
     4  C   -0.170495
     5  H    0.310962
     6  H    0.167197
     7  C   -0.347156
     8  H    0.201073
     9  H    0.167846
    10  C    0.294487
    11  H    0.224393
    12  C   -0.164721
    13  H    0.243278
    14  H    0.211435
    15  H    0.182816
    16  N   -1.251926
    17  N    1.242316
    18  C    1.974835
    19  C    1.802011
    20  O   -1.065350
    21  O   -1.122480
    22  O   -0.920935
    23  O   -1.034881
    24  C   -0.081127
    25  H    0.171229
    26  H    0.211634
    27  H    0.135875
    28  C   -0.078310
    29  H    0.163623
    30  H    0.204583
    31  H    0.184926
    32  O   -0.794224
    33  H    0.388114
    34  H    0.418286
    35  O   -0.737914
    36  H    0.357493
    37  H    0.358672
    38  O   -0.749248
    39  H    0.380208
    40  H    0.369996
    41  O   -0.811526
    42  H    0.417776
    43  H    0.416537
 Sum of APT charges =  -0.00007
 APT charges with hydrogens summed into heavy atoms:
               1
     1  C   -1.828179
     2  C    0.582681
     3  C    0.079331
     4  C   -0.003298
     7  C    0.021763
    10  C    0.518880
    12  C    0.078557
    16  N   -1.251926
    17  N    1.242316
    18  C    1.974835
    19  C    1.802011
    20  O   -1.065350
    21  O   -1.122480
    22  O   -0.920935
    23  O   -1.034881
    24  C    0.437612
    28  C    0.474822
    32  O    0.012177
    35  O   -0.021748
    38  O    0.000955
    41  O    0.022787
 Charge=              0.0000 electrons
 Dipole moment (field-independent basis, Debye):
    X=              5.1844    Y=             -9.5963    Z=              1.6509  Tot=             11.0315
 N-N= 1.148977046872D+03 E-N=-2.132058286891D+03  KE=-8.098377300860D+01
  Exact polarizability: 199.677 -35.638 228.117  31.034 -59.809 162.254
 Approx polarizability: 118.351 -14.501 129.753  18.693 -20.192 104.926
 D2PCM: C-PCM CHGder 2nd derivatives, FixD1E=F FixD2E=F DoIter=F DoCFld=F I1PDM=0
 Calling FoFJK, ICntrl=    100127 FMM=F ISym2X=0 I1Cent= 0 IOpClX= 0 NMat=1 NMatS=1 NMatT=0.
 Full mass-weighted force constant matrix:
 Low frequencies --- -818.9932   -0.1195   -0.1016   -0.0360    2.8243    4.5531
 Low frequencies ---    7.3562   14.4895   16.4820
 ******    1 imaginary frequencies (negative Signs) ****** 
 Diagonal vibrational polarizability:
      506.5266472     772.0845983     579.0069729
 Harmonic frequencies (cm**-1), IR intensities (KM/Mole), Raman scattering
 activities (A**4/AMU), depolarization ratios for plane and unpolarized
 incident light, reduced masses (AMU), force constants (mDyne/A),
 and normal coordinates:
                      1                      2                      3
                      A                      A                      A
 Frequencies --   -818.9932                14.1997                16.2950
 Red. masses --      9.0438                 5.9729                 6.2852
 Frc consts  --      3.5741                 0.0007                 0.0010
 IR Inten    --   5483.2926                 1.5751                 0.4597
  Atom  AN      X      Y      Z        X      Y      Z        X      Y      Z
     1   6    -0.22   0.55  -0.36     0.00   0.07   0.03    -0.01  -0.03  -0.05
     2   6     0.02  -0.06   0.08     0.02   0.05   0.06    -0.03  -0.01  -0.08
     3   6     0.01   0.02   0.01     0.01   0.05   0.05    -0.04   0.02  -0.10
     4   6     0.02   0.02  -0.03     0.00   0.07   0.03    -0.02  -0.01  -0.06
     5   1     0.04  -0.30   0.32    -0.01   0.08   0.02     0.00  -0.05  -0.03
     6   1    -0.03  -0.04   0.04    -0.01   0.08   0.01    -0.01  -0.01  -0.05
     7   6     0.01   0.01   0.02     0.02   0.03   0.06    -0.04   0.03  -0.10
     8   1     0.00   0.02  -0.04     0.03   0.02   0.08    -0.06   0.04  -0.12
     9   1     0.02   0.07   0.03     0.03   0.01   0.04    -0.03   0.06  -0.08
    10   6     0.01  -0.22  -0.07     0.01   0.08   0.07    -0.04  -0.05  -0.09
    11   1     0.04   0.19   0.09     0.00   0.10   0.08    -0.05  -0.08  -0.09
    12   6     0.07   0.03   0.00     0.01   0.08   0.06    -0.05  -0.03  -0.10
    13   1     0.02   0.08   0.05     0.00   0.10   0.07    -0.06  -0.05  -0.12
    14   1     0.02   0.06   0.03     0.02   0.04   0.06    -0.03  -0.01  -0.07
    15   1     0.00   0.00   0.03     0.02   0.04   0.05    -0.05   0.04  -0.11
    16   7    -0.04  -0.08  -0.01     0.01   0.02  -0.01     0.01   0.05  -0.02
    17   7     0.09  -0.22   0.26     0.00   0.04   0.00     0.02   0.01  -0.01
    18   6     0.10   0.03  -0.04     0.01   0.01  -0.03     0.01   0.07  -0.01
    19   6    -0.06  -0.02   0.04     0.01   0.03   0.01     0.03   0.00   0.00
    20   8    -0.01  -0.02  -0.01     0.06   0.01   0.15     0.02   0.00  -0.03
    21   8    -0.01   0.01   0.01     0.03  -0.02  -0.03     0.00   0.06   0.00
    22   8     0.01   0.00   0.00    -0.06   0.04  -0.17     0.04  -0.01   0.07
    23   8    -0.01   0.00   0.02    -0.02   0.01  -0.05     0.03   0.09  -0.02
    24   6     0.01   0.00   0.00    -0.02  -0.02  -0.06     0.03   0.12  -0.01
    25   1    -0.02  -0.01  -0.01    -0.05   0.01  -0.09     0.03   0.21  -0.10
    26   1     0.02  -0.01  -0.01    -0.02  -0.07  -0.08     0.02   0.00  -0.03
    27   1    -0.01   0.00  -0.01     0.01  -0.01  -0.03     0.05   0.16   0.11
    28   6     0.00   0.00   0.00    -0.06   0.01  -0.19     0.05  -0.01   0.12
    29   1    -0.01   0.01   0.00    -0.08   0.09  -0.15     0.09  -0.01   0.12
    30   1    -0.01   0.01  -0.01     0.00  -0.07  -0.16     0.03  -0.01   0.13
    31   1     0.02   0.02  -0.02    -0.09   0.00  -0.29     0.05  -0.01   0.13
    32   8     0.00   0.00   0.00     0.13  -0.23   0.21    -0.03   0.00   0.11
    33   1    -0.01   0.00  -0.01     0.15  -0.28   0.22    -0.07   0.03   0.06
    34   1     0.00  -0.02  -0.01     0.12  -0.07   0.27     0.02  -0.01   0.07
    35   8    -0.01   0.00   0.00    -0.09   0.01  -0.14     0.02  -0.02   0.06
    36   1     0.03   0.01  -0.02    -0.03   0.03  -0.18    -0.01  -0.02   0.09
    37   1     0.02   0.03  -0.02    -0.19  -0.04  -0.11     0.09   0.00   0.05
    38   8     0.00   0.00   0.00    -0.08   0.00   0.00     0.09   0.11  -0.08
    39   1    -0.02  -0.01  -0.02    -0.07   0.01   0.00     0.10   0.09  -0.09
    40   1     0.00   0.00  -0.06    -0.04   0.01  -0.02     0.03   0.09  -0.04
    41   8     0.00   0.00  -0.01     0.00  -0.21   0.00    -0.11  -0.36   0.26
    42   1     0.05   0.05   0.06     0.06  -0.17   0.01     0.05  -0.27   0.27
    43   1     0.04   0.04   0.06    -0.03  -0.17  -0.02    -0.22  -0.27   0.17
                      4                      5                      6
                      A                      A                      A
 Frequencies --     21.3048                23.9515                28.4185
 Red. masses --      6.8896                 4.2304                 7.4277
 Frc consts  --      0.0018                 0.0014                 0.0035
 IR Inten    --      0.4796                 3.0402                 1.9793
  Atom  AN      X      Y      Z        X      Y      Z        X      Y      Z
     1   6     0.03  -0.03   0.00    -0.01   0.00   0.04    -0.03  -0.07   0.05
     2   6     0.03  -0.03   0.00    -0.02  -0.01   0.05     0.02  -0.02   0.01
     3   6     0.04  -0.05   0.04    -0.03   0.02   0.04     0.00  -0.06  -0.09
     4   6     0.04  -0.04   0.03    -0.02   0.02   0.03    -0.04  -0.10  -0.02
     5   1     0.03  -0.01  -0.01    -0.01  -0.01   0.04    -0.06  -0.09   0.10
     6   1     0.04  -0.05   0.03    -0.02   0.03   0.02    -0.06  -0.13  -0.01
     7   6     0.02  -0.05   0.03    -0.02   0.00   0.04     0.04   0.00  -0.06
     8   1     0.03  -0.05   0.03    -0.03   0.00   0.05     0.06   0.02  -0.11
     9   1     0.00  -0.06   0.03    -0.01   0.00   0.04     0.07   0.05  -0.04
    10   6     0.05  -0.02   0.01    -0.03   0.00   0.05    -0.03  -0.09  -0.01
    11   1     0.07   0.00  -0.01    -0.04  -0.01   0.05    -0.05  -0.11   0.01
    12   6     0.06  -0.03   0.03    -0.04   0.01   0.04    -0.04  -0.12  -0.07
    13   1     0.09  -0.03   0.04    -0.05   0.02   0.04    -0.07  -0.17  -0.11
    14   1     0.01  -0.02  -0.01    -0.02  -0.02   0.05     0.04   0.02   0.05
    15   1     0.04  -0.07   0.06    -0.03   0.03   0.03     0.01  -0.07  -0.14
    16   7    -0.02  -0.06   0.01     0.04   0.00   0.02     0.01   0.03   0.10
    17   7    -0.01  -0.04   0.00     0.02   0.00   0.03    -0.01  -0.02   0.12
    18   6    -0.02  -0.06   0.04     0.03   0.01  -0.01     0.00   0.00   0.06
    19   6    -0.02  -0.02  -0.02     0.03  -0.01   0.05     0.00   0.00   0.15
    20   8    -0.05  -0.01  -0.08     0.01   0.00  -0.01     0.03  -0.02   0.29
    21   8    -0.03  -0.09   0.08     0.05   0.00  -0.03     0.03   0.00   0.04
    22   8     0.01  -0.01   0.04     0.05  -0.02   0.14    -0.05   0.02  -0.02
    23   8     0.00  -0.01   0.02     0.01   0.01  -0.03    -0.03   0.00   0.05
    24   6     0.01   0.01   0.04     0.00   0.01  -0.06    -0.04  -0.01   0.02
    25   1     0.03   0.02   0.04    -0.02   0.03  -0.08    -0.07  -0.01   0.01
    26   1     0.00   0.01   0.05     0.02  -0.02  -0.08    -0.02  -0.03   0.00
    27   1     0.00   0.02   0.06     0.00   0.02  -0.03    -0.04  -0.01   0.02
    28   6     0.01   0.02   0.06     0.05  -0.02   0.15    -0.06   0.02  -0.08
    29   1     0.02   0.06   0.08     0.06  -0.01   0.15    -0.11   0.01  -0.08
    30   1     0.00  -0.02   0.09     0.05  -0.02   0.15    -0.02   0.03  -0.11
    31   1     0.02   0.02   0.01     0.05  -0.02   0.14    -0.05   0.02  -0.09
    32   8    -0.16  -0.06   0.25     0.01   0.11  -0.10     0.21   0.07  -0.25
    33   1    -0.23  -0.05   0.16     0.02   0.15  -0.09     0.33   0.00  -0.10
    34   1    -0.05  -0.03   0.21     0.00   0.02  -0.13     0.01   0.06  -0.17
    35   8    -0.02   0.03  -0.19    -0.13   0.00  -0.30     0.02   0.03   0.01
    36   1    -0.03  -0.06  -0.27    -0.20  -0.21  -0.48     0.07   0.08   0.01
    37   1    -0.06   0.14  -0.23    -0.23   0.26  -0.39     0.00  -0.02   0.03
    38   8     0.04   0.29  -0.31    -0.02  -0.03   0.04    -0.11   0.27  -0.19
    39   1    -0.01   0.12  -0.33     0.01  -0.01   0.03    -0.13   0.12  -0.21
    40   1     0.02   0.27  -0.14    -0.03  -0.04   0.03    -0.07   0.27  -0.05
    41   8     0.03   0.15  -0.02     0.04  -0.10  -0.04     0.04  -0.03  -0.03
    42   1    -0.06   0.11  -0.01     0.07  -0.08  -0.03     0.04  -0.02  -0.01
    43   1     0.08   0.08   0.00     0.03  -0.08  -0.04     0.05  -0.02  -0.01
                      7                      8                      9
                      A                      A                      A
 Frequencies --     38.6944                50.3643                59.8861
 Red. masses --      4.1496                 4.8267                 4.9769
 Frc consts  --      0.0037                 0.0072                 0.0105
 IR Inten    --      1.2688                 1.0891                 0.5195
  Atom  AN      X      Y      Z        X      Y      Z        X      Y      Z
     1   6    -0.02  -0.02   0.03    -0.06   0.03   0.05     0.01   0.02   0.01
     2   6     0.05  -0.01   0.06     0.07   0.01   0.14     0.10   0.04   0.02
     3   6     0.04  -0.07  -0.04     0.02  -0.03  -0.08     0.09  -0.05  -0.08
     4   6    -0.03  -0.06  -0.03    -0.10   0.00  -0.07     0.01  -0.04  -0.06
     5   1    -0.06   0.00   0.05    -0.14   0.07   0.08    -0.05   0.04   0.04
     6   1    -0.07  -0.08  -0.05    -0.16   0.00  -0.16    -0.04  -0.07  -0.08
     7   6     0.09  -0.04   0.00     0.15  -0.03   0.02     0.15   0.00  -0.04
     8   1     0.13  -0.04   0.00     0.21  -0.04   0.06     0.21   0.01  -0.05
     9   1     0.11  -0.04  -0.01     0.23  -0.06  -0.03     0.16  -0.01  -0.05
    10   6     0.00  -0.01   0.06    -0.07   0.05   0.16     0.06   0.04   0.02
    11   1    -0.02   0.01   0.10    -0.13   0.09   0.26     0.04   0.07   0.06
    12   6    -0.01  -0.04   0.00    -0.11   0.03   0.01     0.05  -0.03  -0.04
    13   1    -0.04  -0.05  -0.01    -0.18   0.04   0.00     0.04  -0.04  -0.06
    14   1     0.07   0.00   0.10     0.13   0.00   0.23     0.12   0.08   0.06
    15   1     0.05  -0.09  -0.08     0.04  -0.05  -0.18     0.11  -0.10  -0.12
    16   7    -0.02  -0.05   0.02     0.02  -0.06  -0.05     0.01  -0.01  -0.01
    17   7    -0.02  -0.04   0.02    -0.01  -0.02  -0.03     0.00   0.01  -0.01
    18   6    -0.03  -0.02   0.03     0.01  -0.01  -0.09     0.01  -0.03  -0.01
    19   6    -0.03  -0.02   0.01     0.00  -0.03   0.00     0.00   0.03   0.01
    20   8    -0.04  -0.02   0.04     0.01  -0.03   0.03    -0.01   0.03   0.05
    21   8    -0.04  -0.10   0.11    -0.01   0.07  -0.13     0.02  -0.05   0.00
    22   8    -0.03   0.00  -0.04     0.01  -0.02  -0.01     0.00   0.05  -0.03
    23   8    -0.01   0.15  -0.07     0.03  -0.07  -0.04     0.01   0.00  -0.03
    24   6    -0.03   0.29  -0.12     0.04  -0.05  -0.02     0.02   0.01  -0.02
    25   1    -0.01   0.44  -0.27     0.09  -0.14   0.09     0.03   0.02  -0.03
    26   1     0.02   0.16  -0.18     0.03   0.09   0.02     0.01   0.02  -0.02
    27   1    -0.10   0.38   0.06     0.00  -0.09  -0.14     0.01   0.02  -0.02
    28   6    -0.04   0.03  -0.06     0.01  -0.01   0.01     0.01   0.05  -0.01
    29   1    -0.07   0.03  -0.06     0.02  -0.01   0.01     0.02   0.05  -0.01
    30   1    -0.04   0.04  -0.07    -0.01  -0.01   0.02     0.00   0.05  -0.01
    31   1    -0.02   0.04  -0.07     0.02   0.00   0.02     0.00   0.05  -0.01
    32   8    -0.05   0.01  -0.01     0.01   0.00  -0.01    -0.05   0.11   0.03
    33   1    -0.03  -0.03   0.01     0.01  -0.01  -0.01    -0.05   0.07   0.02
    34   1    -0.08   0.03   0.01    -0.01  -0.01  -0.01    -0.05   0.09   0.03
    35   8     0.08   0.06  -0.04     0.11   0.06  -0.07    -0.36  -0.18   0.10
    36   1     0.12   0.08  -0.08     0.18   0.01  -0.21    -0.51  -0.26   0.21
    37   1     0.01   0.05  -0.03    -0.03   0.12  -0.08    -0.29  -0.20   0.10
    38   8     0.12  -0.07   0.08    -0.03  -0.03  -0.05     0.01  -0.02  -0.01
    39   1     0.24   0.02   0.05    -0.01  -0.04  -0.06     0.04  -0.01  -0.03
    40   1    -0.04  -0.11   0.07     0.01  -0.02  -0.05    -0.01  -0.02   0.00
    41   8     0.02   0.00  -0.04    -0.13   0.13   0.24     0.01   0.05   0.08
    42   1    -0.06   0.03   0.07    -0.05   0.07   0.09     0.00   0.02   0.05
    43   1     0.07  -0.12  -0.06    -0.21   0.17   0.15     0.00   0.01   0.04
                     10                     11                     12
                      A                      A                      A
 Frequencies --     64.5130                66.3552                79.5602
 Red. masses --      7.1295                 6.1017                 6.3186
 Frc consts  --      0.0175                 0.0158                 0.0236
 IR Inten    --      3.0109                 5.3359                 2.2266
  Atom  AN      X      Y      Z        X      Y      Z        X      Y      Z
     1   6    -0.02  -0.03   0.00    -0.04   0.03   0.06     0.03  -0.05   0.02
     2   6    -0.09  -0.04  -0.02     0.08   0.05   0.10    -0.01  -0.06   0.03
     3   6    -0.07   0.01   0.11     0.03   0.01  -0.13    -0.04   0.03   0.01
     4   6     0.00   0.01   0.07    -0.07   0.00  -0.07     0.01   0.01   0.01
     5   1     0.03  -0.04  -0.03    -0.11   0.06   0.10     0.05  -0.06   0.01
     6   1     0.03   0.03   0.09    -0.13  -0.01  -0.13     0.03   0.04   0.01
     7   6    -0.14  -0.03   0.06     0.15   0.04  -0.03    -0.02  -0.01   0.02
     8   1    -0.17  -0.05   0.08     0.20   0.05  -0.04    -0.06  -0.02   0.03
     9   1    -0.17  -0.06   0.06     0.23   0.06  -0.06     0.01   0.00   0.01
    10   6    -0.03  -0.03  -0.01    -0.06   0.04   0.10    -0.04  -0.07   0.04
    11   1     0.00  -0.04  -0.06    -0.12   0.05   0.19    -0.06  -0.10   0.05
    12   6    -0.01   0.01   0.07    -0.10   0.01  -0.05    -0.06  -0.01   0.02
    13   1     0.03   0.02   0.09    -0.17  -0.01  -0.08    -0.10   0.00   0.01
    14   1    -0.13  -0.05  -0.07     0.14   0.05   0.19     0.00  -0.10   0.05
    15   1    -0.09   0.02   0.17     0.04   0.00  -0.23    -0.05   0.07   0.00
    16   7     0.02  -0.05  -0.04    -0.03   0.03   0.05     0.05  -0.02   0.02
    17   7    -0.02  -0.04  -0.01     0.00   0.03   0.03     0.06  -0.04   0.02
    18   6     0.01  -0.02  -0.07    -0.03   0.05   0.07     0.04   0.05   0.02
    19   6    -0.01  -0.01   0.06    -0.01   0.01  -0.03     0.06  -0.08  -0.03
    20   8     0.00  -0.02   0.23    -0.02   0.01  -0.13     0.09  -0.09   0.01
    21   8    -0.01   0.06  -0.12    -0.06   0.14   0.02     0.01   0.12  -0.02
    22   8    -0.03   0.03  -0.10    -0.01  -0.01   0.03     0.03  -0.07  -0.14
    23   8     0.03  -0.09  -0.02    -0.01  -0.07   0.17     0.06   0.02   0.05
    24   6     0.04  -0.07  -0.01    -0.01  -0.09   0.15     0.06   0.06   0.03
    25   1     0.05  -0.07  -0.01    -0.02  -0.14   0.20     0.08   0.01   0.08
    26   1     0.03  -0.07   0.00     0.00  -0.03   0.16     0.08   0.14   0.04
    27   1     0.04  -0.07  -0.01    -0.01  -0.12   0.08     0.01   0.04  -0.03
    28   6    -0.03   0.08  -0.06    -0.03  -0.02  -0.05     0.00  -0.04  -0.22
    29   1    -0.02   0.03  -0.08    -0.07  -0.01  -0.04    -0.06  -0.18  -0.29
    30   1    -0.08   0.14  -0.08     0.02  -0.03  -0.06    -0.02   0.11  -0.33
    31   1     0.02   0.10   0.00    -0.04  -0.02  -0.08     0.07  -0.01  -0.08
    32   8    -0.03   0.18   0.04    -0.05  -0.06  -0.01    -0.19   0.29   0.13
    33   1     0.02   0.04   0.08    -0.07  -0.01  -0.04    -0.25   0.12   0.03
    34   1    -0.12   0.18   0.08     0.00  -0.05  -0.03    -0.14   0.19   0.07
[...]
 1,0.00021722,-0.00003943,0.00026775,0.00014502,0.00040950,0.00003236,-
 0.00007259,0.00001758,0.00011729,0.00001620,0.00004718,0.00001116,-0.0
 0001929,-0.00001169,0.00000084,-0.00000629,0.00001006,0.00000637,0.000
 00427,0.00001731,0.00000956,-0.00000203,0.00000657,0.00000639,0.000015
 29,-0.00008887,-0.00002148,-0.00001195,0.00005863,0.00002219,-0.000012
 76,0.00004934,-0.00002107,0.00000838,-0.00001363,0.00000659,-0.0000025
 4,0.00000904,0.00000628,-0.00000353,0.00000483,-0.07010636,0.05964727,
 -0.15789232,0.07378829,-0.05950044,0.17150752,-0.00036541,0.00051947,-
 0.00052692,-0.00002411,-0.00008467,0.00007273,-0.00007413,-0.00006441,
 0.00000518,-0.00016020,0.00012803,0.00002220,-0.00021840,0.00042797,0.
 00008694,0.00031945,-0.00034530,-0.00001171,-0.00003851,-0.00001800,-0
 .00006762,0.00000303,0.00000628,0.00001951,0.00003675,-0.00003099,0.00
 002158,0.00015964,-0.00011184,-0.00002637,-0.00003565,-0.00001203,-0.0
 0003141,-0.00003088,0.00005644,-0.00001351,0.00001675,0.00001338,-0.00
 002394,0.00000774,-0.00000384,0.00000875,0.00004932,-0.00001056,-0.000
 00069,-0.00138391,0.00006645,0.00028087,0.00052936,-0.00073059,0.00069
 234,0.00296305,-0.00208330,-0.00324633,-0.00077653,0.00076094,0.000439
 00,0.00020443,-0.00018461,-0.00028374,0.00010038,0.00103206,0.00122282
 ,0.00034961,-0.00027902,-0.00013155,-0.00353230,0.00008015,0.00015057,
 -0.00013043,0.00039698,0.00065989,-0.00086208,-0.00004653,-0.00015120,
 -0.00003803,-0.00001006,-0.00016012,-0.00004642,-0.00014441,-0.0000423
 2,-0.00002467,-0.00010317,0.00001224,-0.00001359,-0.00000190,0.0000330
 1,-0.00002009,0.00000466,0.00001223,0.00000724,0.00004283,0.00000985,0
 .00011370,0.00005800,-0.00009725,-0.00011653,-0.00004685,0.00006626,-0
 .00003279,-0.00003769,0.00005384,0.00000694,-0.00003853,-0.00003074,-0
 .00000608,0.00001253,0.00000562,0.00000346,0.00001116,0.00001813,-0.01
 954953,0.04418863,-0.01270626,-0.00664334,0.02394937,-0.00445583,0.029
 25853,0.00047845,-0.00121692,0.00059949,-0.00018410,0.00001217,-0.0000
 8262,0.00014077,-0.00025665,0.00007306,0.00006951,0.00045550,0.0000941
 6,0.00034579,-0.00014050,0.00005505,-0.00021099,-0.00064356,0.00014661
 ,0.00000618,0.00024276,0.00020115,-0.00001478,-0.00007008,-0.00005223,
 -0.00000617,-0.00001251,-0.00011643,0.00000243,0.00039713,-0.00006962,
 0.00012512,-0.00002206,0.00009128,-0.00033613,0.00017759,-0.00028939,-
 0.00006944,-0.00002424,0.00017165,0.00012463,0.00004661,-0.00008268,-0
 .00015579,-0.00000100,-0.00000617,0.00061050,-0.00030553,-0.00030035,-
 0.00096036,0.00039560,-0.00068465,-0.00064627,-0.00092658,-0.00183691,
 0.00114248,0.00146705,0.00037906,-0.00036178,-0.00103037,-0.00017154,0
 .00063340,0.00050595,0.00065352,-0.00055851,-0.00035966,0.00006563,0.0
 0120525,-0.00038031,0.00151918,-0.00049809,-0.00023819,0.00051437,0.00
 007916,0.00035569,0.00005091,0.00010049,0.00010513,-0.00007948,-0.0000
 0650,-0.00002184,-0.00005192,0.00006529,0.00017637,-0.00006562,0.00000
 779,0.00002639,-0.00004449,0.00002486,0.00004484,0.00004213,-0.0000383
 1,-0.00004438,0.00000986,-0.00001377,-0.00016142,-0.00008959,-0.000031
 23,0.00010613,0.00008556,0.00002565,0.00011420,0.00002469,-0.00008382,
 0.00001249,0.00004138,0.00002844,0.00000051,-0.00000171,0.00002127,0.0
 0000161,-0.00002729,0.05834960,-0.18058561,0.01770919,0.00800499,-0.02
 715775,-0.00138816,-0.06736221,0.20895953,-0.00103481,0.00290562,-0.00
 162244,0.00009252,-0.00057865,0.00021368,0.00010097,0.00013107,-0.0000
 1764,0.00019527,-0.00011776,-0.00032447,0.00015357,-0.00002607,0.00045
 969,-0.00005236,0.00019234,0.00040304,0.00000699,0.00006684,0.00014032
 ,0.00001913,-0.00004083,-0.00004024,-0.00000854,0.00002269,-0.00005244
 ,-0.00026985,-0.00104483,-0.00037733,0.00022585,0.00014964,0.00023403,
 0.00027318,-0.00012295,-0.00003037,-0.00002395,-0.00003405,0.00013203,
 0.00010521,0.00006406,-0.00007645,-0.00006789,-0.00003946,0.00002070,-
 0.00221063,-0.00149530,-0.00280006,0.00251525,-0.00084687,0.00199238,0
 .00095891,-0.00160664,-0.00289941,0.00096458,-0.00007376,0.00018950,-0
 .00052283,-0.00033054,-0.00002794,0.00054786,0.00082798,0.00097748,-0.
 00050488,0.00002091,0.00007850,-0.00155610,-0.00070518,-0.00157847,-0.
 00062858,0.00022216,0.00072354,-0.00011061,0.00009099,0.00018141,0.000
 16197,0.00001999,-0.00012939,0.00011281,-0.00007878,0.00003999,0.00005
 537,0.00013422,-0.00005586,0.00000815,0.00000842,-0.00003149,0.0000265
 9,0.00002127,0.00004066,-0.00001795,-0.00004485,0.00001132,-0.00005154
 ,-0.00005544,-0.00009573,0.00002075,0.00002799,0.00008177,0.00005144,0
 .00004696,0.00002909,-0.00006138,0.00002637,0.00001668,0.00001900,-0.0
 0000382,0.00000797,0.00001152,-0.00000421,-0.00001422,0.00011938,-0.02
 562827,-0.02458621,-0.01770414,0.04496665,-0.01259752,0.01811916,-0.01
 705538,0.04140626,-0.00089248,0.00250594,-0.00139219,0.00009625,-0.000
 58126,0.00019913,0.00010188,0.00007223,0.00000757,0.00011456,0.0000607
 8,-0.00013377,0.00010033,-0.00003545,0.00025876,-0.00000433,0.00000977
 ,0.00011749,-0.00001335,0.00015418,0.00011826,0.00001461,-0.00007001,-
 0.00004179,0.00001848,-0.00005265,-0.00004160,-0.00015187,-0.00086400,
 -0.00035638,0.00018636,0.00009462,0.00017090,0.00018335,-0.00004030,-0
 .00007963,-0.00003335,-0.00005826,0.00011703,0.00012156,0.00004381,-0.
 00007870,-0.00010513,-0.00007041,0.00001209,-0.00291263,-0.00155901,-0
 .00188191,0.00134862,-0.00071107,0.00280156,0.00354255,0.00330787,0.00
 306653,0.00034263,0.00037534,-0.00006280,-0.00025131,-0.00032364,-0.00
 001509,-0.00987099,-0.00026346,-0.00508871,-0.00029134,-0.00009056,0.0
 0007596,-0.00038028,-0.00081524,-0.00121800,-0.00021323,-0.00039249,-0
 .00130496,-0.00018091,0.00017777,0.00012216,-0.00046564,0.00009595,0.0
 0028042,-0.00014236,-0.00015103,0.00026694,0.00007213,0.00006864,-0.00
 001110,0.00000182,0.00000893,-0.00002481,0.00002322,0.00001830,0.00002
 237,-0.00000129,-0.00003600,0.00000198,-0.00006203,-0.00007242,-0.0000
 2965,0.00003245,0.00004271,0.00002703,0.00004092,0.00005155,0.00000695
 ,-0.00008276,0.00003716,0.00002968,0.00002854,-0.00001143,0.00000356,0
 .00002131,-0.00001115,-0.00002252,-0.00007257,-0.00014736,-0.00012913,
 0.00007165,0.00013321,0.00007394,0.00006909,0.00009015,0.00009664,0.17
 450607,-0.00031415,0.00103044,-0.00047854,0.00007457,-0.00023218,0.000
 04070,0.00012594,0.00005027,0.00001461,0.00000829,0.00007503,-0.000062
 42,0.00001914,-0.00005180,0.00007868,0.00002190,-0.00003770,0.00001251
 ,0.00005500,0.00006274,0.00010459,-0.00002697,-0.00002244,-0.00002736,
 -0.00006108,-0.00002018,-0.00002908,-0.00007022,-0.00033954,-0.0001148
 9,0.00004748,0.00004272,0.00004634,0.00011525,-0.00006727,0.00000936,-
 0.00000939,-0.00000955,0.00002339,0.00000863,0.00001074,-0.00000487,-0
 .00015607,-0.00002978,-0.00005331,-0.00088877,-0.00010310,-0.00019149,
 0.00068818,-0.00021984,0.00092840,0.00166836,-0.00139151,-0.00116579,-
 0.00004634,-0.00027649,0.00003608,-0.00001209,0.00013765,-0.00002354,0
 .00158199,0.00347982,-0.00009797,-0.00002506,0.00008154,0.00001637,-0.
 00105031,0.00062422,0.00038572,-0.00053881,0.00036127,-0.00215707,-0.0
 0010752,0.00013216,0.00014111,0.00124670,-0.00028680,0.00214353,-0.000
 15209,-0.00038502,0.00006010,0.00000010,0.00001506,-0.00000116,0.00000
 289,-0.00000909,0.00000228,0.00000312,-0.00000739,0.00000042,0.0000041
 1,-0.00001534,-0.00000099,-0.00001280,0.00002349,-0.00000657,0.0000077
 7,-0.00001312,-0.00000087,0.00000888,-0.00001559,0.00000865,0.00001771
 ,0.00003137,0.00000962,-0.00000887,-0.00001041,-0.00000094,-0.00001506
 ,-0.00001371,-0.00000524,-0.00014232,0.00009129,-0.00011355,0.00011737
 ,-0.00003154,0.00009201,0.00006691,-0.00007916,0.00002352,-0.00361618,
 0.17122653,-0.00044465,0.00114231,-0.00059358,-0.00000691,-0.00032244,
 0.00007864,0.00000382,-0.00000408,-0.00001339,0.00001067,0.00008452,-0
 .00001592,0.00004889,-0.00000204,0.00013020,0.00009026,-0.00003942,0.0
 0005850,-0.00001347,0.00009503,0.00015063,0.00001092,-0.00004493,-0.00
 005594,0.00000432,-0.00001226,-0.00012055,-0.00005100,-0.00037704,-0.0
 0019391,0.00010279,0.00003631,0.00008972,0.00002834,0.00002030,-0.0000
 4545,-0.00000487,-0.00003259,0.00005750,0.00009306,0.00002655,-0.00007
 675,0.00004460,-0.00005383,0.00000615,-0.00166584,-0.00062249,-0.00056
 192,0.00055732,-0.00026755,0.00124900,0.00319041,0.00016265,-0.0009080
 2,0.00042429,0.00029592,-0.00011689,-0.00022723,-0.00028557,0.00005097
 ,-0.00463577,-0.00098839,0.00134445,-0.00027795,-0.00007556,0.00010747
 ,-0.00212105,0.00036148,0.00075545,-0.00051056,-0.00106852,-0.00381840
 ,-0.00030503,0.00040665,0.00022494,0.00129916,0.00079930,0.00197747,0.
 00006546,-0.00019341,0.00066823,0.00006531,0.00007326,0.00000514,-0.00
 000268,0.00000959,-0.00003830,0.00001282,0.00001108,0.00000634,-0.0000
 1220,-0.00003000,-0.00000875,-0.00005069,-0.00005494,0.00002153,0.0000
 3258,0.00003309,-0.00000065,0.00002631,0.00004053,-0.00002271,-0.00004
 469,0.00001396,0.00006717,0.00001389,-0.00000015,-0.00001471,0.0000041
 4,0.00000029,-0.00004111,-0.00022997,-0.00020547,-0.00003371,0.0001524
 8,0.00016138,-0.00003269,0.00014786,0.00009431,0.00005300,-0.03840524,
 -0.12751462,0.11521039,0.00068718,-0.00186533,0.00105408,-0.00005971,0
 .00044559,-0.00015658,-0.00005294,-0.00005799,0.00000700,-0.00009192,-
 0.00004242,0.00010143,-0.00007802,0.00001788,-0.00019927,0.00000851,-0
 .00001278,-0.00010053,0.00003568,-0.00013518,-0.00008865,-0.00001640,0
 .00005808,0.00003613,-0.00002786,0.00004210,0.00005080,0.00010939,0.00
 064983,0.00028034,-0.00014624,-0.00006976,-0.00013292,-0.00011710,0.00
 000960,0.00007944,0.00002932,0.00004804,-0.00009359,-0.00010251,-0.000
 03551,0.00007139,0.00007078,0.00005847,-0.00001772,0.00235265,0.001213
 31,0.00189997,-0.00085957,0.00048719,-0.00219271,-0.00420822,-0.004014
 66,-0.00470925,-0.00033537,-0.00037049,0.00011035,0.00023131,0.0003275
 2,-0.00001040,-0.00234506,0.00229141,0.00206220,0.00025566,0.00009845,
 -0.00007299,-0.00016198,0.00115098,0.00145029,0.00008301,0.00011935,-0
 .00012166,0.00007231,-0.00007474,-0.00006944,0.00046776,-0.00017616,0.
 00017302,0.00007892,0.00002291,-0.00025953,-0.00006323,-0.00006130,0.0
 0000439,0.00000102,-0.00000938,0.00002550,-0.00001790,-0.00001560,-0.0
 0001694,0.00000492,0.00002870,0.00000006,0.00004832,0.00006300,0.00001
 774,-0.00002523,-0.00003733,-0.00002083,-0.00003130,-0.00004580,0.0000
 0051,0.00006563,-0.00002410,-0.00003204,-0.00002193,0.00000633,-0.0000
 0002,-0.00001578,0.00000547,0.00002242,0.00003814,0.00015019,0.0000757
 0,-0.00003625,-0.00012248,-0.00002672,-0.00004930,-0.00010044,-0.00007
 855,-0.04982905,0.06989178,-0.04072868,0.05258236,0.00043438,-0.001327
 05,0.00065887,-0.00007956,0.00031050,-0.00006911,-0.00013432,-0.000048
 41,-0.00001830,-0.00002397,-0.00008012,0.00007947,-0.00003580,0.000044
 45,-0.00011554,-0.00002353,0.00002800,-0.00003769,-0.00005247,-0.00007
 698,-0.00012639,0.00002202,0.00002497,0.00003275,0.00005372,0.00002263
 ,0.00004507,0.00008391,0.00044290,0.00016465,-0.00007341,-0.00005485,-
 0.00006993,-0.00012740,0.00006714,0.00000524,0.00001094,0.00001335,-0.
 00003845,-0.00003168,-0.00001992,0.00002136,0.00014439,0.00004025,0.00
 004600,0.00145823,0.00053864,0.00064960,-0.00077226,0.00034935,-0.0013
 5730,-0.00289771,-0.00036164,-0.00036808,-0.00004767,0.00003463,0.0000
 1611,0.00006827,0.00001838,0.00000764,-0.00182132,-0.00182697,0.000306
 21,0.00008589,-0.00001494,-0.00003464,0.00087273,-0.00013993,-0.000028
 34,-0.00030454,0.00001573,0.00068585,0.00013719,-0.00011158,-0.0001312
 5,-0.00042356,-0.00116390,-0.00146749,0.00000706,0.00020016,-0.0004313
 1,-0.00001618,-0.00002815,-0.00000135,-0.00000036,0.00000278,0.0000065
 4,-0.00000586,0.00000062,-0.00000395,0.00000095,0.00001705,0.00000116,
 0.00001736,0.00000251,0.00000582,-0.00000966,-0.00000206,-0.00000405,-
 0.00001139,-0.00000324,-0.00000278,-0.00000230,-0.00002528,-0.00001760
 ,0.00000345,0.00000728,0.00000225,0.00000991,0.00000941,0.00000939,0.0
 0011012,0.00000621,0.00008113,-0.00008421,-0.00003175,-0.00004883,-0.0
 0006273,0.00001429,-0.00003790,0.03482174,-0.12284569,0.08260555,-0.04
 182314,0.15375318,0.00020614,-0.00048330,0.00025445,0.00001869,0.00014
 955,-0.00003607,0.00002808,0.00000156,0.00001558,0.00000279,-0.0000404
 8,-0.00000036,-0.00002238,-0.00000572,-0.00006188,-0.00005294,0.000015
 00,-0.00003258,0.00001458,-0.00005340,-0.00008312,-0.00000526,0.000027
 26,0.00003289,-0.00000274,0.00000807,0.00007511,0.00001550,0.00016077,
 0.00009228,-0.00005086,-0.00001268,-0.00004404,0.00000797,-0.00002732,
 0.00002947,0.00000164,0.00001959,-0.00003034,-0.00005046,-0.00001188,0
 .00004224,-0.00005265,0.00003416,-0.00000385,0.00080280,0.00024100,0.0
 0030767,-0.00020661,0.00009199,-0.00055056,-0.00248140,-0.00074006,-0.
 00014884,-0.00024160,-0.00015728,0.00006497,0.00012564,0.00015874,-0.0
 0002682,0.00316160,0.00119187,-0.00046708,0.00015198,0.00004128,-0.000
 05672,0.00088308,-0.00004648,-0.00043052,-0.00061058,0.00050277,0.0004
 0860,0.00016184,-0.00012740,-0.00012279,0.00009224,-0.00090388,0.00001
 252,-0.00016580,-0.00014426,-0.00081144,-0.00003540,-0.00004016,-0.000
 00149,0.00000113,-0.00000503,0.00002005,-0.00000737,-0.00000639,-0.000
 00413,0.00000626,0.00001668,0.00000435,0.00002786,0.00003131,-0.000009
 02,-0.00001745,-0.00001893,-0.00000103,-0.00001484,-0.00002288,0.00001
 067,0.00002535,-0.00000832,-0.00003599,-0.00000810,0.00000039,0.000007
 62,-0.00000256,0.00000033,0.00002240,0.00009532,0.00011730,0.00000805,
 -0.00005727,-0.00008221,0.00002314,-0.00006558,-0.00006049,-0.00002333
 ,-0.01359217,0.07129298,-0.05398336,0.01929328,-0.10113366,0.07480593,
 0.00060970,-0.00173559,0.00096430,-0.00007914,0.00039302,-0.00013184,-
 0.00008198,-0.00005789,-0.00000682,-0.00007772,-0.00004000,0.00010281,
 -0.00006629,0.00003064,-0.00017032,0.00001894,-0.00001216,-0.00006934,
 0.00000162,-0.00010037,-0.00007222,-0.00000487,0.00004307,0.00002510,0
 .00000293,0.00003469,0.00001065,0.00010737,0.00060446,0.00023364,-0.00
 011919,-0.00006714,-0.00011056,-0.00014464,0.00004642,0.00004257,0.000
 02017,0.00003334,-0.00007238,-0.00007261,-0.00002915,0.00004396,0.0000
 9498,0.00003513,0.00000500,0.00200489,0.00104732,0.00119386,-0.0010198
 8,0.00046123,-0.00188209,-0.00393364,-0.00322924,-0.00397473,-0.000165
 37,-0.00019072,0.00000177,0.00013442,0.00016525,0.00002488,0.00036681,
 0.00102796,0.00248943,0.00014864,0.00004191,-0.00003375,-0.00044167,0.
 00097207,0.00147383,0.00016845,-0.00007442,-0.00038845,0.00000111,-0.0
 0001921,-0.00003347,0.00048203,0.00017829,0.00052094,0.00005286,0.0000
 4734,0.00001964,-0.00003981,-0.00003219,0.00000976,-0.00000212,-0.0000
 0405,0.00001078,-0.00001308,-0.00001025,-0.00001376,-0.00000195,0.0000
 2023,-0.00000199,0.00003508,0.00003994,0.00002187,-0.00001757,-0.00002
 348,-0.00001739,-0.00002394,-0.00002811,-0.00000776,0.00004848,-0.0000
 2561,-0.00001381,-0.00001637,0.00000834,-0.00000354,-0.00001211,0.0000
 0879,0.00001133,0.00000943,0.00006786,0.00008459,-0.00002041,-0.000068
 79,-0.00005974,-0.00002445,-0.00004537,-0.00005850,-0.11508342,-0.0685
 3106,0.08330646,0.00147130,0.01052525,-0.00737897,0.11568450,0.0000377
 8,-0.00017744,0.00005674,-0.00002101,0.00003358,0.00000348,-0.00003836
 ,-0.00001639,-0.00000523,0.00000421,-0.00001795,0.00001001,0.00000317,
 0.00001968,-0.00000673,-0.00000458,0.00001107,0.00000970,-0.00002811,-
 0.00000598,-0.00003282,0.00001222,0.00000316,0.00000826,0.00002843,0.0
 0000324,0.00000936,0.00001530,0.00005379,0.00000904,-0.00000095,-0.000
 00752,-0.00000244,-0.00003253,0.00002455,-0.00001748,-0.00000033,-0.00
 000066,0.00000202,0.00001004,0.00000178,-0.00000743,0.00004269,0.00000
 499,0.00001977,0.00001181,-0.00024278,-0.00006688,-0.00014651,0.000026
 27,-0.00009622,-0.00021020,0.00139596,0.00060983,0.00006321,0.00022567
 ,-0.00002885,-0.00002076,-0.00012798,0.00001781,0.00186307,-0.00222675
 ,0.00083414,-0.00001790,-0.00006397,0.00000259,0.00030143,-0.00052650,
 -0.00035443,-0.00014555,-0.00014637,0.00008492,0.00002417,0.00001784,-
 0.00004180,-0.00000051,0.00020047,-0.00032621,0.00005548,0.00008587,0.
 00001437,0.00000755,0.00000031,0.00000138,-0.00000245,0.00000653,-0.00
 000538,-0.00000033,0.00000561,0.00000110,-0.00000390,0.00000484,0.0000
 0008,0.00000254,-0.00001979,0.00000494,-0.00000155,0.00001139,0.000001
 46,-0.00000265,0.00001402,-0.00000739,-0.00001440,-0.00001321,0.000000
 18,0.00000569,0.00000465,-0.00000006,0.00000801,0.00000647,0.00000007,
 0.00003758,-0.00008746,0.00005654,-0.00003599,0.00005273,-0.00006201,-
 0.00000867,0.00006088,0.00000285,-0.03219684,-0.05096164,0.04572011,-0
 .02809170,-0.02780200,0.03003003,0.05849199,0.08016859,0.00048493,-0.0
 0131703,0.00070061,-0.00002683,0.00033992,-0.00008871,-0.00003254,-0.0
 0001990,0.00000848,-0.00003517,-0.00006309,0.00005240,-0.00005136,0.00
 001371,-0.00013702,-0.00003534,0.00001562,-0.00005929,0.00000308,-0.00
 008133,-0.00013096,-0.00000808,0.00003369,0.00004385,0.00000579,0.0000
 0690,0.00009150,0.00006983,0.00044561,0.00019729,-0.00009978,-0.000048
 20,-0.00009041,-0.00007485,0.00001031,0.00003757,0.00001031,0.00002704
 ,-0.00005691,-0.00007774,-0.00002779,0.00006246,0.00001303,0.00003702,
 -0.00000394,0.00182021,0.00085345,0.00075647,-0.00069633,0.00034973,-0
 .00146285,-0.00422121,-0.00159493,-0.00152821,-0.00029964,-0.00026002,
 0.00009568,0.00017518,0.00022468,-0.00003251,0.00009510,0.00140753,-0.
 00095360,0.00021393,0.00006357,-0.00008473,0.00086976,0.00022120,0.000
 34836,-0.00029391,0.00015383,0.00058880,0.00016127,-0.00016349,-0.0001
 4784,-0.00017302,-0.00085294,-0.00149490,0.00004014,0.00010315,-0.0002
 6700,-0.00005119,-0.00005559,-0.00000460,0.00000289,-0.00000708,0.0000
 2881,-0.00001009,-0.00000884,-0.00000621,0.00000946,0.00002320,0.00000
 612,0.00003718,0.00004148,-0.00001047,-0.00002302,-0.00002504,-0.00000
 330,-0.00002036,-0.00003073,0.00001448,0.00003425,-0.00001230,-0.00005
 000,-0.00001004,0.00000061,0.00000999,-0.00000211,0.00000002,0.0000300
 3,0.00012906,0.00012828,0.00005195,-0.00009391,-0.00010935,-0.00000756
 ,-0.00008765,-0.00006543,-0.00005199,0.05603322,0.05658077,-0.06161548
 ,0.02231140,0.02011299,-0.01927297,-0.07609407,-0.07645062,0.08443649\
 \-0.00001306,0.00001528,0.00002425,0.00000119,-0.00000203,0.00000240,0
 .00000002,0.00000005,-0.00000053,-0.00000048,-0.00000082,-0.00000093,-
 0.00000088,-0.00000006,0.00000112,-0.00000175,0.00000033,-0.00000070,0
 .00000048,-0.00000041,-0.00000010,0.00000081,0.00000032,0.00000042,0.0
 0000105,-0.00000031,-0.00000043,0.00000033,0.00000108,0.00000044,-0.00
 000096,0.00000010,0.00000080,-0.00000168,-0.00000049,0.00000031,-0.000
 00126,0.00000028,-0.00000037,-0.00000101,0.00000176,-0.00000110,-0.000
 00004,-0.00000022,-0.00000111,-0.00002671,0.00003016,0.00001823,0.0000
 4678,-0.00007749,-0.00006016,-0.00000080,0.00000277,-0.00000346,-0.000
 00650,0.00003108,0.00001927,-0.00000004,0.00000035,-0.00000047,0.00000
 026,-0.00000206,-0.00000005,0.00000111,0.00000050,0.00000079,0.0000003
 5,-0.00000019,-0.00000081,0.00000017,-0.00000216,-0.00000010,0.0000022
 5,0.00000205,-0.00000411,0.00000029,0.00000056,-0.00000212,-0.00000006
 ,-0.00000002,-0.00000192,0.00000071,-0.00000060,0.00000251,0.00000117,
 0.00000047,0.00000186,0.00000042,0.00000050,0.00000285,0.00000052,0.00
 000133,0.00000227,-0.00000005,-0.00000008,0.00000161,-0.00000115,0.000
 00060,0.00000193,-0.00000028,0.00000025,0.00000253,0.00000084,0.000000
 06,0.00000230,0.00000064,-0.00000026,0.00000320,0.00000155,0.00000083,
 0.00000348,-0.00000302,0.00000030,-0.00000075,-0.00000188,-0.00000040,
 -0.00000119,-0.00000247,-0.00000059,-0.00000093,-0.00000031,-0.0000016
 8,-0.00000433,0.00000169,-0.00000109,-0.00000456,0.00000177,-0.0000000
 7,-0.00000236\\\@


 CHEMISTRY BEGAN BY SAYING IT WOULD CHANGE THE BASER
 METALS INTO GOLD.  BY NOT DOING THAT IT HAS DONE MUCH
 GREATER THINGS.  --  RALPH WALDO EMERSON
 Job cpu time:       0 days  0 hours  1 minutes 25.5 seconds.
 File lengths (MBytes):  RWF=    284 Int=      0 D2E=      0 Chk=     23 Scr=      1
 Normal termination of Gaussian 09 at Mon Sep  7 12:21:42 2020.
